 Entering Gaussian System, Link 0=g03
 Initial command:
 /apps/gaussian/g03/amd64/g03/l1.exe /scratch/lfs/pengfei/pymsmt/testcases2/1E67/fc/Gau-21069.inp -scrdir=/scratch/lfs/pengfei/pymsmt/testcases2/1E67/fc/
 Entering Link 1 = /apps/gaussian/g03/amd64/g03/l1.exe PID=     21071.
  
 Copyright (c) 1988,1990,1992,1993,1995,1998,2003,2004,2007, Gaussian, Inc.
                  All Rights Reserved.
  
 This is the Gaussian(R) 03 program.  It is based on the
 the Gaussian(R) 98 system (copyright 1998, Gaussian, Inc.),
 the Gaussian(R) 94 system (copyright 1995, Gaussian, Inc.),
 the Gaussian 92(TM) system (copyright 1992, Gaussian, Inc.),
 the Gaussian 90(TM) system (copyright 1990, Gaussian, Inc.),
 the Gaussian 88(TM) system (copyright 1988, Gaussian, Inc.),
 the Gaussian 86(TM) system (copyright 1986, Carnegie Mellon
 University), and the Gaussian 82(TM) system (copyright 1983,
 Carnegie Mellon University). Gaussian is a federally registered
 trademark of Gaussian, Inc.
  
 This software contains proprietary and confidential information,
 including trade secrets, belonging to Gaussian, Inc.
  
 This software is provided under written license and may be
 used, copied, transmitted, or stored only in accord with that
 written license.
  
 The following legend is applicable only to US Government
 contracts under FAR:
  
                    RESTRICTED RIGHTS LEGEND
  
 Use, reproduction and disclosure by the US Government is
 subject to restrictions as set forth in subparagraphs (a)
 and (c) of the Commercial Computer Software - Restricted
 Rights clause in FAR 52.227-19.
  
 Gaussian, Inc.
 340 Quinnipiac St., Bldg. 40, Wallingford CT 06492
  
  
 ---------------------------------------------------------------
 Warning -- This program may not be used in any manner that
 competes with the business of Gaussian, Inc. or will provide
 assistance to any competitor of Gaussian, Inc.  The licensee
 of this program is prohibited from giving any competitor of
 Gaussian, Inc. access to this program.  By using this program,
 the user acknowledges that Gaussian, Inc. is engaged in the
 business of creating and licensing software in the field of
 computational chemistry and represents and warrants to the
 licensee that it is not a competitor of Gaussian, Inc. and that
 it will not use this program in any manner prohibited above.
 ---------------------------------------------------------------
  

 Cite this work as:
 Gaussian 03, Revision E.01,
 M. J. Frisch, G. W. Trucks, H. B. Schlegel, G. E. Scuseria, 
 M. A. Robb, J. R. Cheeseman, J. A. Montgomery, Jr., T. Vreven, 
 K. N. Kudin, J. C. Burant, J. M. Millam, S. S. Iyengar, J. Tomasi, 
 V. Barone, B. Mennucci, M. Cossi, G. Scalmani, N. Rega, 
 G. A. Petersson, H. Nakatsuji, M. Hada, M. Ehara, K. Toyota, 
 R. Fukuda, J. Hasegawa, M. Ishida, T. Nakajima, Y. Honda, O. Kitao, 
 H. Nakai, M. Klene, X. Li, J. E. Knox, H. P. Hratchian, J. B. Cross, 
 V. Bakken, C. Adamo, J. Jaramillo, R. Gomperts, R. E. Stratmann, 
 O. Yazyev, A. J. Austin, R. Cammi, C. Pomelli, J. W. Ochterski, 
 P. Y. Ayala, K. Morokuma, G. A. Voth, P. Salvador, J. J. Dannenberg, 
 V. G. Zakrzewski, S. Dapprich, A. D. Daniels, M. C. Strain, 
 O. Farkas, D. K. Malick, A. D. Rabuck, K. Raghavachari, 
 J. B. Foresman, J. V. Ortiz, Q. Cui, A. G. Baboul, S. Clifford, 
 J. Cioslowski, B. B. Stefanov, G. Liu, A. Liashenko, P. Piskorz, 
 I. Komaromi, R. L. Martin, D. J. Fox, T. Keith, M. A. Al-Laham, 
 C. Y. Peng, A. Nanayakkara, M. Challacombe, P. M. W. Gill, 
 B. Johnson, W. Chen, M. W. Wong, C. Gonzalez, and J. A. Pople, 
 Gaussian, Inc., Wallingford CT, 2004.
 
 ******************************************
 Gaussian 03:  AM64L-G03RevE.01 11-Sep-2007
                 2-Nov-2015 
 ******************************************
 %Chk=1E67_small_opt.chk
 %Mem=6000MB
 %NProcShared=12
 Will use up to   12 processors via shared memory.
 ----------------------------------------------------------------------
 #N B3LYP/6-31G* Geom=PrintInputOrient Integral=(Grid=UltraFine) Opt SC
 F=XQC
 ----------------------------------------------------------------------
 1/14=-1,18=20,26=3,38=1/1,3;
 2/9=2110,17=6,18=5,40=1/2;
 3/5=1,6=6,7=1,11=2,16=1,25=1,30=1,74=-5,75=5/1,2,3;
 4//1;
 5/5=2,8=3,13=1,38=5/2,8;
 6/7=2,8=2,9=2,10=2,28=1/1;
 7//1,2,3,16;
 1/14=-1,18=20/3(3);
 2/9=2110/2;
 6/7=2,8=2,9=2,10=2,19=2,28=1/1;
 99//99;
 2/9=2110/2;
 3/5=1,6=6,7=1,11=2,16=1,25=1,30=1,74=-5,75=5/1,2,3;
 4/5=5,16=3/1;
 5/5=2,8=3,13=1,38=5/2,8;
 7//1,2,3,16;
 1/14=-1,18=20/3(-5);
 2/9=2110/2;
 6/7=2,8=2,9=2,10=2,19=2,28=1/1;
 99/9=1/99;
 ---
 CLR
 ---
 Symbolic Z-matrix:
 Charge =  1 Multiplicity = 1
 H                     14.464    56.249    33.3 
 C                     13.906    56.582    32.425 
 H                     13.308    57.45     32.702 
 H                     14.614    56.901    31.661 
 C                     12.994    55.519    31.813 
 O                     13.29     54.311    31.869 
 N                     11.851    55.931    31.267 
 H                     11.6      56.909    31.263 
 C                     10.979    54.97     30.599 
 H                     11.568    54.095    30.323 
 C                     9.774     54.539    31.453 
 H                     9.135     55.41     31.611 
 H                     9.196     53.809    30.885 
 C                     10.069    53.932    32.812 
 N                     11.03     53.044    33.009 
 C                     10.957    52.791    34.309 
 H                     11.618    52.128    34.841 
 N                     9.992     53.498    34.861 
 H                     9.735     53.451    35.837 
 C                     9.4       54.235    33.961 
 H                     8.59      54.928    34.092 
 H                     10.578    55.439    29.7 
 H                     10.591    49.612    27.198 
 C                     11.181    50.492    27.455 
 H                     10.771    51.388    26.989 
 C                     11.25     50.675    28.972 
 H                     10.243    50.829    29.361 
 H                     11.663    49.774    29.426 
 S                     12.284    52.091    29.459 
 H                     12.183    50.283    27.081 
 H                     15.659    47.875    31.489 
 C                     14.588    47.835    31.689 
 H                     14.438    47.506    32.717 
 C                     13.969    49.21     31.572 
 H                     14.192    49.631    30.591 
 H                     12.888    49.109    31.643 
 C                     14.415    50.192    32.646 
 N                     13.768    51.325    32.852 
 C                     14.368    51.858    33.896 
 H                     14.099    52.802    34.345 
 N                     15.343    51.072    34.292 
 H                     15.95     51.272    35.073 
 C                     15.429    50.002    33.543 
 H                     16.103    49.167    33.654 
 H                     14.02     47.161    31.048 
 Zn                    12.377    52.315    31.721 
 

 GradGradGradGradGradGradGradGradGradGradGradGradGradGradGradGradGradGrad
 Berny optimization.
 Initialization pass.
                           ----------------------------
                           !    Initial Parameters    !
                           ! (Angstroms and Degrees)  !
 --------------------------                            --------------------------
 ! Name  Definition              Value          Derivative Info.                !
 --------------------------------------------------------------------------------
 ! R1    R(1,2)                  1.0899         estimate D2E/DX2                !
 ! R2    R(2,3)                  1.0898         estimate D2E/DX2                !
 ! R3    R(2,4)                  1.0894         estimate D2E/DX2                !
 ! R4    R(2,5)                  1.5285         estimate D2E/DX2                !
 ! R5    R(5,6)                  1.245          estimate D2E/DX2                !
 ! R6    R(5,7)                  1.332          estimate D2E/DX2                !
 ! R7    R(6,46)                 2.1999         estimate D2E/DX2                !
 ! R8    R(7,8)                  1.0097         estimate D2E/DX2                !
 ! R9    R(7,9)                  1.4595         estimate D2E/DX2                !
 ! R10   R(9,10)                 1.0903         estimate D2E/DX2                !
 ! R11   R(9,11)                 1.5385         estimate D2E/DX2                !
 ! R12   R(9,22)                 1.0904         estimate D2E/DX2                !
 ! R13   R(11,12)                1.0918         estimate D2E/DX2                !
 ! R14   R(11,13)                1.0907         estimate D2E/DX2                !
 ! R15   R(11,14)                1.5174         estimate D2E/DX2                !
 ! R16   R(14,15)                1.3232         estimate D2E/DX2                !
 ! R17   R(14,20)                1.3637         estimate D2E/DX2                !
 ! R18   R(15,16)                1.3264         estimate D2E/DX2                !
 ! R19   R(15,46)                2.0012         estimate D2E/DX2                !
 ! R20   R(16,17)                1.0768         estimate D2E/DX2                !
 ! R21   R(16,18)                1.3175         estimate D2E/DX2                !
 ! R22   R(18,19)                1.0104         estimate D2E/DX2                !
 ! R23   R(18,20)                1.3052         estimate D2E/DX2                !
 ! R24   R(20,21)                1.074          estimate D2E/DX2                !
 ! R25   R(23,24)                1.0902         estimate D2E/DX2                !
 ! R26   R(24,25)                1.09           estimate D2E/DX2                !
 ! R27   R(24,26)                1.5296         estimate D2E/DX2                !
 ! R28   R(24,30)                1.0898         estimate D2E/DX2                !
 ! R29   R(26,27)                1.0905         estimate D2E/DX2                !
 ! R30   R(26,28)                1.0902         estimate D2E/DX2                !
 ! R31   R(26,29)                1.8197         estimate D2E/DX2                !
 ! R32   R(29,46)                2.275          estimate D2E/DX2                !
 ! R33   R(31,32)                1.0902         estimate D2E/DX2                !
 ! R34   R(32,33)                1.0897         estimate D2E/DX2                !
 ! R35   R(32,34)                1.5124         estimate D2E/DX2                !
 ! R36   R(32,45)                1.0899         estimate D2E/DX2                !
 ! R37   R(34,35)                1.0906         estimate D2E/DX2                !
 ! R38   R(34,36)                1.088          estimate D2E/DX2                !
 ! R39   R(34,37)                1.5221         estimate D2E/DX2                !
 ! R40   R(37,38)                1.3209         estimate D2E/DX2                !
 ! R41   R(37,43)                1.3671         estimate D2E/DX2                !
 ! R42   R(38,39)                1.3168         estimate D2E/DX2                !
 ! R43   R(38,46)                2.048          estimate D2E/DX2                !
 ! R44   R(39,40)                1.0794         estimate D2E/DX2                !
 ! R45   R(39,41)                1.3135         estimate D2E/DX2                !
 ! R46   R(41,42)                1.0092         estimate D2E/DX2                !
 ! R47   R(41,43)                1.3089         estimate D2E/DX2                !
 ! R48   R(43,44)                1.0788         estimate D2E/DX2                !
 ! A1    A(1,2,3)              108.6757         estimate D2E/DX2                !
 ! A2    A(1,2,4)              108.649          estimate D2E/DX2                !
 ! A3    A(1,2,5)              114.4843         estimate D2E/DX2                !
 ! A4    A(3,2,4)              107.5562         estimate D2E/DX2                !
 ! A5    A(3,2,5)              109.1637         estimate D2E/DX2                !
 ! A6    A(4,2,5)              108.0973         estimate D2E/DX2                !
 ! A7    A(2,5,6)              120.9925         estimate D2E/DX2                !
 ! A8    A(2,5,7)              117.4524         estimate D2E/DX2                !
 ! A9    A(6,5,7)              121.5041         estimate D2E/DX2                !
 ! A10   A(5,6,46)             141.1381         estimate D2E/DX2                !
 ! A11   A(5,7,8)              120.9657         estimate D2E/DX2                !
 ! A12   A(5,7,9)              119.7772         estimate D2E/DX2                !
 ! A13   A(8,7,9)              119.1722         estimate D2E/DX2                !
 ! A14   A(7,9,10)             108.7553         estimate D2E/DX2                !
 ! A15   A(7,9,11)             113.4747         estimate D2E/DX2                !
 ! A16   A(7,9,22)             108.2924         estimate D2E/DX2                !
 ! A17   A(10,9,11)            109.804          estimate D2E/DX2                !
 ! A18   A(10,9,22)            109.5816         estimate D2E/DX2                !
 ! A19   A(11,9,22)            106.8641         estimate D2E/DX2                !
 ! A20   A(9,11,12)            108.3759         estimate D2E/DX2                !
 ! A21   A(9,11,13)            108.2693         estimate D2E/DX2                !
 ! A22   A(9,11,14)            117.1898         estimate D2E/DX2                !
 ! A23   A(12,11,13)           107.4073         estimate D2E/DX2                !
 ! A24   A(12,11,14)           107.6574         estimate D2E/DX2                !
 ! A25   A(13,11,14)           107.5601         estimate D2E/DX2                !
 ! A26   A(11,14,15)           122.8886         estimate D2E/DX2                !
 ! A27   A(11,14,20)           124.7771         estimate D2E/DX2                !
 ! A28   A(15,14,20)           112.3318         estimate D2E/DX2                !
 ! A29   A(14,15,16)           103.5299         estimate D2E/DX2                !
 ! A30   A(14,15,46)           129.6052         estimate D2E/DX2                !
 ! A31   A(16,15,46)           126.7529         estimate D2E/DX2                !
 ! A32   A(15,16,17)           124.6023         estimate D2E/DX2                !
 ! A33   A(15,16,18)           110.4013         estimate D2E/DX2                !
 ! A34   A(17,16,18)           124.9615         estimate D2E/DX2                !
 ! A35   A(16,18,19)           124.477          estimate D2E/DX2                !
 ! A36   A(16,18,20)           110.2623         estimate D2E/DX2                !
 ! A37   A(19,18,20)           125.2383         estimate D2E/DX2                !
 ! A38   A(14,20,18)           103.4746         estimate D2E/DX2                !
 ! A39   A(14,20,21)           128.0345         estimate D2E/DX2                !
 ! A40   A(18,20,21)           128.4841         estimate D2E/DX2                !
 ! A41   A(23,24,25)           111.0499         estimate D2E/DX2                !
 ! A42   A(23,24,26)           110.7804         estimate D2E/DX2                !
 ! A43   A(23,24,30)           105.1824         estimate D2E/DX2                !
 ! A44   A(25,24,26)           110.0377         estimate D2E/DX2                !
 ! A45   A(25,24,30)           110.9031         estimate D2E/DX2                !
 ! A46   A(26,24,30)           108.7747         estimate D2E/DX2                !
 ! A47   A(24,26,27)           109.2107         estimate D2E/DX2                !
 ! A48   A(24,26,28)           109.3438         estimate D2E/DX2                !
 ! A49   A(24,26,29)           112.5915         estimate D2E/DX2                !
 ! A50   A(27,26,28)           108.5423         estimate D2E/DX2                !
 ! A51   A(27,26,29)           108.6248         estimate D2E/DX2                !
 ! A52   A(28,26,29)           108.4452         estimate D2E/DX2                !
 ! A53   A(26,29,46)           111.4658         estimate D2E/DX2                !
 ! A54   A(31,32,33)           108.6234         estimate D2E/DX2                !
 ! A55   A(31,32,34)           110.7629         estimate D2E/DX2                !
 ! A56   A(31,32,45)           115.2625         estimate D2E/DX2                !
 ! A57   A(33,32,34)           106.9246         estimate D2E/DX2                !
 ! A58   A(33,32,45)           107.2406         estimate D2E/DX2                !
 ! A59   A(34,32,45)           107.6639         estimate D2E/DX2                !
 ! A60   A(32,34,35)           109.6854         estimate D2E/DX2                !
 ! A61   A(32,34,36)           108.493          estimate D2E/DX2                !
 ! A62   A(32,34,37)           114.3325         estimate D2E/DX2                !
 ! A63   A(35,34,36)           107.3193         estimate D2E/DX2                !
 ! A64   A(35,34,37)           109.0108         estimate D2E/DX2                !
 ! A65   A(36,34,37)           107.7566         estimate D2E/DX2                !
 ! A66   A(34,37,38)           121.3268         estimate D2E/DX2                !
 ! A67   A(34,37,43)           126.2038         estimate D2E/DX2                !
 ! A68   A(38,37,43)           112.346          estimate D2E/DX2                !
 ! A69   A(37,38,39)           104.3384         estimate D2E/DX2                !
 ! A70   A(37,38,46)           131.3925         estimate D2E/DX2                !
 ! A71   A(39,38,46)           123.4803         estimate D2E/DX2                !
 ! A72   A(38,39,40)           124.7661         estimate D2E/DX2                !
 ! A73   A(38,39,41)           109.5747         estimate D2E/DX2                !
 ! A74   A(40,39,41)           125.6566         estimate D2E/DX2                !
 ! A75   A(39,41,42)           124.1399         estimate D2E/DX2                !
 ! A76   A(39,41,43)           111.434          estimate D2E/DX2                !
 ! A77   A(42,41,43)           124.4257         estimate D2E/DX2                !
 ! A78   A(37,43,41)           102.3049         estimate D2E/DX2                !
 ! A79   A(37,43,44)           129.6793         estimate D2E/DX2                !
 ! A80   A(41,43,44)           127.944          estimate D2E/DX2                !
 ! A81   A(6,46,15)             84.5792         estimate D2E/DX2                !
 ! A82   A(6,46,29)             99.9737         estimate D2E/DX2                !
 ! A83   A(6,46,38)             96.8669         estimate D2E/DX2                !
 ! A84   A(15,46,29)           130.4134         estimate D2E/DX2                !
 ! A85   A(15,46,38)           106.1308         estimate D2E/DX2                !
 ! A86   A(29,46,38)           121.9567         estimate D2E/DX2                !
 ! D1    D(1,2,5,6)            -31.1454         estimate D2E/DX2                !
 ! D2    D(1,2,5,7)            146.2942         estimate D2E/DX2                !
 ! D3    D(3,2,5,6)           -153.202          estimate D2E/DX2                !
 ! D4    D(3,2,5,7)             24.2376         estimate D2E/DX2                !
 ! D5    D(4,2,5,6)             90.0846         estimate D2E/DX2                !
 ! D6    D(4,2,5,7)            -92.4758         estimate D2E/DX2                !
 ! D7    D(2,5,6,46)           159.7498         estimate D2E/DX2                !
 ! D8    D(7,5,6,46)           -17.5852         estimate D2E/DX2                !
 ! D9    D(2,5,7,8)             -0.2006         estimate D2E/DX2                !
 ! D10   D(2,5,7,9)            176.4193         estimate D2E/DX2                !
 ! D11   D(6,5,7,8)            177.2251         estimate D2E/DX2                !
 ! D12   D(6,5,7,9)             -6.1551         estimate D2E/DX2                !
 ! D13   D(5,6,46,15)          -48.8569         estimate D2E/DX2                !
 ! D14   D(5,6,46,29)           81.2725         estimate D2E/DX2                !
 ! D15   D(5,6,46,38)         -154.5014         estimate D2E/DX2                !
 ! D16   D(5,7,9,10)           -20.9187         estimate D2E/DX2                !
 ! D17   D(5,7,9,11)           101.5985         estimate D2E/DX2                !
 ! D18   D(5,7,9,22)          -139.933          estimate D2E/DX2                !
 ! D19   D(8,7,9,10)           155.7619         estimate D2E/DX2                !
 ! D20   D(8,7,9,11)           -81.7209         estimate D2E/DX2                !
 ! D21   D(8,7,9,22)            36.7475         estimate D2E/DX2                !
 ! D22   D(7,9,11,12)           65.0324         estimate D2E/DX2                !
 ! D23   D(7,9,11,13)         -178.7595         estimate D2E/DX2                !
 ! D24   D(7,9,11,14)          -56.9715         estimate D2E/DX2                !
 ! D25   D(10,9,11,12)        -173.0323         estimate D2E/DX2                !
 ! D26   D(10,9,11,13)         -56.8242         estimate D2E/DX2                !
 ! D27   D(10,9,11,14)          64.9638         estimate D2E/DX2                !
 ! D28   D(22,9,11,12)         -54.2564         estimate D2E/DX2                !
 ! D29   D(22,9,11,13)          61.9517         estimate D2E/DX2                !
 ! D30   D(22,9,11,14)        -176.2603         estimate D2E/DX2                !
 ! D31   D(9,11,14,15)         -42.9967         estimate D2E/DX2                !
 ! D32   D(9,11,14,20)         136.396          estimate D2E/DX2                !
 ! D33   D(12,11,14,15)       -165.3718         estimate D2E/DX2                !
 ! D34   D(12,11,14,20)         14.021          estimate D2E/DX2                !
 ! D35   D(13,11,14,15)         79.1586         estimate D2E/DX2                !
 ! D36   D(13,11,14,20)       -101.4486         estimate D2E/DX2                !
 ! D37   D(11,14,15,16)        179.4019         estimate D2E/DX2                !
 ! D38   D(11,14,15,46)          3.106          estimate D2E/DX2                !
 ! D39   D(20,14,15,16)         -0.0589         estimate D2E/DX2                !
 ! D40   D(20,14,15,46)       -176.3548         estimate D2E/DX2                !
 ! D41   D(11,14,20,18)       -179.4205         estimate D2E/DX2                !
 ! D42   D(11,14,20,21)         -0.3176         estimate D2E/DX2                !
 ! D43   D(15,14,20,18)          0.0282         estimate D2E/DX2                !
 ! D44   D(15,14,20,21)        179.1311         estimate D2E/DX2                !
 ! D45   D(14,15,16,17)       -177.8733         estimate D2E/DX2                !
 ! D46   D(14,15,16,18)          0.0676         estimate D2E/DX2                !
 ! D47   D(46,15,16,17)         -1.4349         estimate D2E/DX2                !
 ! D48   D(46,15,16,18)        176.5059         estimate D2E/DX2                !
 ! D49   D(14,15,46,6)          71.9824         estimate D2E/DX2                !
 ! D50   D(14,15,46,29)        -26.5111         estimate D2E/DX2                !
 ! D51   D(14,15,46,38)        167.5821         estimate D2E/DX2                !
 ! D52   D(16,15,46,6)        -103.5214         estimate D2E/DX2                !
 ! D53   D(16,15,46,29)        157.9851         estimate D2E/DX2                !
 ! D54   D(16,15,46,38)         -7.9217         estimate D2E/DX2                !
 ! D55   D(15,16,18,19)        178.2984         estimate D2E/DX2                !
 ! D56   D(15,16,18,20)         -0.0544         estimate D2E/DX2                !
 ! D57   D(17,16,18,19)         -3.7698         estimate D2E/DX2                !
 ! D58   D(17,16,18,20)        177.8774         estimate D2E/DX2                !
 ! D59   D(16,18,20,14)          0.0158         estimate D2E/DX2                !
 ! D60   D(16,18,20,21)       -179.0815         estimate D2E/DX2                !
 ! D61   D(19,18,20,14)       -178.3217         estimate D2E/DX2                !
 ! D62   D(19,18,20,21)          2.581          estimate D2E/DX2                !
 ! D63   D(23,24,26,27)        -61.711          estimate D2E/DX2                !
 ! D64   D(23,24,26,28)         56.924          estimate D2E/DX2                !
 ! D65   D(23,24,26,29)        177.5389         estimate D2E/DX2                !
 ! D66   D(25,24,26,27)         61.4727         estimate D2E/DX2                !
 ! D67   D(25,24,26,28)       -179.8924         estimate D2E/DX2                !
 ! D68   D(25,24,26,29)        -59.2774         estimate D2E/DX2                !
 ! D69   D(30,24,26,27)       -176.8524         estimate D2E/DX2                !
 ! D70   D(30,24,26,28)        -58.2174         estimate D2E/DX2                !
 ! D71   D(30,24,26,29)         62.3976         estimate D2E/DX2                !
 ! D72   D(24,26,29,46)       -179.4243         estimate D2E/DX2                !
 ! D73   D(27,26,29,46)         59.4903         estimate D2E/DX2                !
 ! D74   D(28,26,29,46)        -58.2949         estimate D2E/DX2                !
 ! D75   D(26,29,46,6)        -167.9787         estimate D2E/DX2                !
 ! D76   D(26,29,46,15)        -76.6176         estimate D2E/DX2                !
 ! D77   D(26,29,46,38)         87.379          estimate D2E/DX2                !
 ! D78   D(31,32,34,35)         55.4371         estimate D2E/DX2                !
 ! D79   D(31,32,34,36)        172.3764         estimate D2E/DX2                !
 ! D80   D(31,32,34,37)        -67.3471         estimate D2E/DX2                !
 ! D81   D(33,32,34,35)        173.6242         estimate D2E/DX2                !
 ! D82   D(33,32,34,36)        -69.4365         estimate D2E/DX2                !
 ! D83   D(33,32,34,37)         50.84           estimate D2E/DX2                !
 ! D84   D(45,32,34,35)        -71.4128         estimate D2E/DX2                !
 ! D85   D(45,32,34,36)         45.5265         estimate D2E/DX2                !
 ! D86   D(45,32,34,37)        165.8029         estimate D2E/DX2                !
 ! D87   D(32,34,37,38)       -165.6335         estimate D2E/DX2                !
 ! D88   D(32,34,37,43)         10.0099         estimate D2E/DX2                !
 ! D89   D(35,34,37,38)         71.2171         estimate D2E/DX2                !
 ! D90   D(35,34,37,43)       -113.1395         estimate D2E/DX2                !
 ! D91   D(36,34,37,38)        -44.9475         estimate D2E/DX2                !
 ! D92   D(36,34,37,43)        130.6959         estimate D2E/DX2                !
 ! D93   D(34,37,38,39)        175.7391         estimate D2E/DX2                !
 ! D94   D(34,37,38,46)        -14.4351         estimate D2E/DX2                !
 ! D95   D(43,37,38,39)         -0.4609         estimate D2E/DX2                !
 ! D96   D(43,37,38,46)        169.3649         estimate D2E/DX2                !
 ! D97   D(34,37,43,41)       -175.5826         estimate D2E/DX2                !
 ! D98   D(34,37,43,44)          1.4799         estimate D2E/DX2                !
 ! D99   D(38,37,43,41)          0.3944         estimate D2E/DX2                !
 ! D100  D(38,37,43,44)        177.4569         estimate D2E/DX2                !
 ! D101  D(37,38,39,40)        179.7853         estimate D2E/DX2                !
 ! D102  D(37,38,39,41)          0.3406         estimate D2E/DX2                !
 ! D103  D(46,38,39,40)          8.927          estimate D2E/DX2                !
 ! D104  D(46,38,39,41)       -170.5176         estimate D2E/DX2                !
 ! D105  D(37,38,46,6)        -132.8368         estimate D2E/DX2                !
 ! D106  D(37,38,46,15)        140.8454         estimate D2E/DX2                !
 ! D107  D(37,38,46,29)        -26.5328         estimate D2E/DX2                !
 ! D108  D(39,38,46,6)          35.3229         estimate D2E/DX2                !
 ! D109  D(39,38,46,15)        -50.9949         estimate D2E/DX2                !
 ! D110  D(39,38,46,29)        141.6269         estimate D2E/DX2                !
 ! D111  D(38,39,41,42)        179.6596         estimate D2E/DX2                !
 ! D112  D(38,39,41,43)         -0.1077         estimate D2E/DX2                !
 ! D113  D(40,39,41,42)          0.2211         estimate D2E/DX2                !
 ! D114  D(40,39,41,43)       -179.5463         estimate D2E/DX2                !
 ! D115  D(39,41,43,37)         -0.1668         estimate D2E/DX2                !
 ! D116  D(39,41,43,44)       -177.3001         estimate D2E/DX2                !
 ! D117  D(42,41,43,37)       -179.9334         estimate D2E/DX2                !
 ! D118  D(42,41,43,44)          2.9333         estimate D2E/DX2                !
 --------------------------------------------------------------------------------
 Trust Radius=3.00D-01 FncErr=1.00D-07 GrdErr=1.00D-06
 Number of steps in this run= 262 maximum allowed number of steps= 276.
 GradGradGradGradGradGradGradGradGradGradGradGradGradGradGradGradGradGrad

                          Input orientation:                          
 ---------------------------------------------------------------------
 Center     Atomic     Atomic              Coordinates (Angstroms)
 Number     Number      Type              X           Y           Z
 ---------------------------------------------------------------------
    1          1             0       14.464000   56.249000   33.300000
    2          6             0       13.906000   56.582000   32.425000
    3          1             0       13.308000   57.450000   32.702000
    4          1             0       14.614000   56.901000   31.661000
    5          6             0       12.994000   55.519000   31.813000
    6          8             0       13.290000   54.311000   31.869000
    7          7             0       11.851000   55.931000   31.267000
    8          1             0       11.600000   56.909000   31.263000
    9          6             0       10.979000   54.970000   30.599000
   10          1             0       11.568000   54.095000   30.323000
   11          6             0        9.774000   54.539000   31.453000
   12          1             0        9.135000   55.410000   31.611000
   13          1             0        9.196000   53.809000   30.885000
   14          6             0       10.069000   53.932000   32.812000
   15          7             0       11.030000   53.044000   33.009000
   16          6             0       10.957000   52.791000   34.309000
   17          1             0       11.618000   52.128000   34.841000
   18          7             0        9.992000   53.498000   34.861000
   19          1             0        9.735000   53.451000   35.837000
   20          6             0        9.400000   54.235000   33.961000
   21          1             0        8.590000   54.928000   34.092000
   22          1             0       10.578000   55.439000   29.700000
   23          1             0       10.591000   49.612000   27.198000
   24          6             0       11.181000   50.492000   27.455000
   25          1             0       10.771000   51.388000   26.989000
   26          6             0       11.250000   50.675000   28.972000
   27          1             0       10.243000   50.829000   29.361000
   28          1             0       11.663000   49.774000   29.426000
   29         16             0       12.284000   52.091000   29.459000
   30          1             0       12.183000   50.283000   27.081000
   31          1             0       15.659000   47.875000   31.489000
   32          6             0       14.588000   47.835000   31.689000
   33          1             0       14.438000   47.506000   32.717000
   34          6             0       13.969000   49.210000   31.572000
   35          1             0       14.192000   49.631000   30.591000
   36          1             0       12.888000   49.109000   31.643000
   37          6             0       14.415000   50.192000   32.646000
   38          7             0       13.768000   51.325000   32.852000
   39          6             0       14.368000   51.858000   33.896000
   40          1             0       14.099000   52.802000   34.345000
   41          7             0       15.343000   51.072000   34.292000
   42          1             0       15.950000   51.272000   35.073000
   43          6             0       15.429000   50.002000   33.543000
   44          1             0       16.103000   49.167000   33.654000
   45          1             0       14.020000   47.161000   31.048000
   46         30             0       12.377000   52.315000   31.721000
 ---------------------------------------------------------------------
                    Distance matrix (angstroms):
                    1          2          3          4          5
     1  H    0.000000
     2  C    1.089898   0.000000
     3  H    1.770972   1.089843   0.000000
     4  H    1.770290   1.089367   1.758044   0.000000
     5  C    2.214716   1.528482   2.148878   2.134813   0.000000
     6  O    2.679903   2.417857   3.247697   2.916220   1.244996
     7  N    3.325956   2.446996   2.547437   2.954709   1.332032
     8  H    3.575957   2.602846   2.297970   3.040175   2.043976
     9  C    4.590911   3.807906   3.999656   4.250862   2.415662
    10  H    4.678575   4.008718   4.465788   4.352240   2.506263
    11  C    5.322744   4.710845   4.745849   5.389611   3.385026
    12  H    5.652865   4.979821   4.771353   5.678470   3.865820
    13  H    6.287897   5.678488   5.785060   6.286284   4.267328
    14  C    4.992260   4.679192   4.783257   5.549485   3.474506
    15  N    4.706279   4.596724   4.969544   5.434943   3.378363
    16  C    5.027414   5.159238   5.460397   6.105543   4.221536
    17  H    5.239946   5.559687   5.979557   6.470699   4.749846
    18  N    5.477546   5.546580   5.592445   6.571400   4.731464
    19  H    6.052158   6.232347   6.211808   7.290138   5.575866
    20  C    5.489737   5.307706   5.214765   6.291530   4.379429
    21  H    6.072576   5.811580   5.527396   6.789040   4.993830
    22  H    5.358833   4.450580   4.528689   4.719350   3.210642
    23  H    9.812456   9.321569   9.955418   9.446291   7.871803
    24  C    8.836581   8.319533   8.970446   8.399477   6.895641
    25  H    8.780449   8.145917   8.707616   8.184705   6.728883
    26  C    7.754409   7.339632   8.003055   7.570356   5.880234
    27  H    7.918899   7.476809   8.024596   7.827185   5.964596
    28  H    8.048547   7.770065   8.506420   8.031049   6.361946
    29  S    6.065859   5.621132   6.347008   5.780467   4.218602
    30  H    8.914711   8.438274   9.177535   8.407383   7.103889
    31  H    8.650527   8.930899   9.933740   9.087920   8.101724
    32  C    8.567736   8.804364   9.752579   9.066081   7.848571
    33  H    8.762455   9.096266  10.008010   9.455799   8.192101
    34  C    7.264883   7.421453   8.343346   7.718512   6.388442
    35  H    7.156157   7.194564   8.147057   7.360427   6.131642
    36  H    7.497268   7.582452   8.418442   7.980894   6.413130
    37  C    6.092402   6.414049   7.342149   6.783842   5.575846
    38  N    4.993085   5.276118   6.144080   5.764198   4.389560
    39  C    4.432303   4.969252   5.815471   5.521557   4.430540
    40  H    3.620367   4.244060   4.992898   4.926549   3.874808
    41  N    5.343972   5.992559   6.881003   6.436680   5.607054
    42  H    5.488374   6.275822   7.125271   6.716568   6.115762
    43  C    6.325763   6.845864   7.789649   7.197385   6.273708
    44  H    7.277799   7.830675   8.793544   8.124280   7.307740
    45  H    9.373387   9.521784  10.445390   9.777331   8.455416
    46  Zn   4.724951   4.587019   5.310117   5.102859   3.264164
                    6          7          8          9         10
     6  O    0.000000
     7  N    2.248894   0.000000
     8  H    3.157996   1.009703   0.000000
     9  C    2.718070   1.459496   2.141555   0.000000
    10  H    2.324232   2.083776   2.967022   1.090285   0.000000
    11  C    3.547858   2.507227   2.997879   1.538539   2.166211
    12  H    4.305623   2.786832   2.905913   2.148972   3.050845
    13  H    4.240412   3.420209   3.941079   2.146813   2.454389
    14  C    3.377533   3.091690   3.688616   2.608239   2.910102
    15  N    2.830634   3.470356   4.279210   3.085478   2.934049
    16  C    3.702282   4.462354   5.162314   4.302630   4.238152
    17  H    4.048933   5.224038   5.971630   5.145857   4.927871
    18  N    4.526570   4.721462   5.212119   4.615799   4.840829
    19  H    5.396540   5.613622   6.029715   5.593884   5.846266
    20  C    4.417504   4.017643   4.389702   3.786358   4.237318
    21  H    5.235687   4.429532   4.581234   4.232037   4.875216
    22  H    3.651286   2.078000   2.376626   1.090396   1.781731
    23  H    7.154260   7.620638   8.413591   6.358106   5.551346
    24  C    6.206129   6.675550   7.473574   5.475219   4.621342
    25  H    6.221229   6.332972   7.031057   5.089802   4.367907
    26  C    5.076879   5.766607   6.650860   4.600825   3.690898
    27  H    5.262946   5.678812   6.513482   4.384315   3.653468
    28  H    5.403679   6.429096   7.367955   5.370494   4.414145
    29  S    3.427614   4.266375   5.189932   3.360248   2.296773
    30  H    6.354146   7.037949   7.857028   5.982801   5.041838
    31  H    6.868672   8.913433   9.906549   8.545965   7.535532
    32  C    6.607252   8.556545   9.562797   8.069771   7.083358
    33  H    6.953059   8.931724   9.928986   8.494816   7.575161
    34  C    5.154556   7.053424   8.061156   6.562349   5.584624
    35  H    4.934500   6.754795   7.754955   6.231240   5.185026
    36  H    5.222402   6.910603   7.914755   6.251843   5.324002
    37  C    4.339990   6.435205   7.413164   6.231018   5.360517
    38  N    3.179775   5.234725   6.197274   5.112783   4.348418
    39  C    3.359765   5.462258   6.333018   5.660395   5.060682
    40  H    3.010339   4.931352   5.710619   5.335461   4.924865
    41  N    4.536172   6.704817   7.566734   6.919332   6.256366
    42  H    5.155263   7.279678   8.075541   7.642167   7.052216
    43  C    5.093631   7.289396   8.219872   7.290450   6.482929
    44  H    6.128616   8.338403   9.269976   8.322452   7.479771
    45  H    7.233909   9.036892  10.046200   8.392244   7.390418
    46  Zn   2.199884   3.682153   4.681702   3.203485   2.403598
                   11         12         13         14         15
    11  C    0.000000
    12  H    1.091754   0.000000
    13  H    1.090692   1.758976   0.000000
    14  C    1.517351   2.121141   2.119101   0.000000
    15  N    2.496737   3.338171   2.908635   1.323206   0.000000
    16  C    3.551300   4.178283   3.982615   2.081210   1.326400
    17  H    4.548824   5.231607   4.933739   3.125805   2.130968
    18  N    3.570108   3.866871   4.066806   2.095874   2.171051
    19  H    4.517159   4.696462   4.994095   3.081159   3.136919
    20  C    2.553890   2.640710   3.112052   1.363661   2.231969
    21  H    2.918475   2.585481   3.450253   2.194962   3.267406
    22  H    2.128245   2.394788   2.443573   3.494950   4.109721
    23  H    6.561086   7.430431   5.758021   7.102949   6.763066
    24  C    5.860193   6.756121   5.167941   6.462785   6.114117
    25  H    5.554287   6.341598   4.849813   6.393127   6.248985
    26  C    4.823322   5.818743   4.207189   5.171887   4.685929
    27  H    4.284918   5.222617   3.507019   4.644167   4.339758
    28  H    5.512012   6.552061   4.949343   5.594175   4.891981
    29  S    4.033465   5.055993   3.810609   4.420194   3.883713
    30  H    6.559817   7.489815   5.985421   7.115375   6.640310
    31  H    8.890636   9.967632   8.794745   8.347795   7.103281
    32  C    8.256749   9.333912   8.087568   7.671760   6.444800
    33  H    8.533093   9.582185   8.400155   7.771143   6.509161
    34  C    6.783099   7.861875   6.663655   6.248591   5.040064
    35  H    6.659597   7.746644   6.519366   6.358504   5.243428
    36  H    6.262427   7.334073   6.024569   5.707421   4.560959
    37  C    6.469818   7.495142   6.589520   5.736103   4.441160
    38  N    5.314041   6.300158   5.562601   4.525555   3.236704
    39  C    5.853277   6.724747   6.294609   4.894684   3.651795
    40  H    5.485112   6.238407   6.084822   4.457341   3.355923
    41  N    7.147991   8.034007   7.542177   6.179407   4.912926
    42  H    7.868968   8.692106   8.342196   6.839143   5.621964
    43  C    7.545296   8.520183   7.772291   6.686468   5.374953
    44  H    8.588308   9.576112   8.770529   7.734555   6.417358
    45  H    8.522173   9.603447   8.215440   8.035455   6.884425
    46  Zn   3.434182   4.483491   3.612436   3.021892   2.001198
                   16         17         18         19         20
    16  C    0.000000
    17  H    1.076807   0.000000
    18  N    1.317489   2.126306   0.000000
    19  H    2.064865   2.507595   1.010363   0.000000
    20  C    2.151857   3.183296   1.305233   2.060645   0.000000
    21  H    3.196333   4.191633   2.145196   2.556869   1.074016
    22  H    5.329017   6.202758   5.544980   6.505810   4.581858
    23  H    7.797841   8.111747   8.612861   9.492259   8.278211
    24  C    7.232765   7.577629   8.080754   9.005805   7.714275
    25  H    7.455562   7.932144   8.187022   9.144199   7.654661
    26  C    5.748641   6.057375   6.650730   7.558414   6.402048
    27  H    5.370470   5.797277   6.118542   7.005107   5.785455
    28  H    5.783115   5.904707   6.797032   7.637960   6.751882
    29  S    5.076754   5.423177   6.034444   7.001849   5.760399
    30  H    7.748363   7.996302   8.698569   9.627900   8.408198
    31  H    7.363984   6.756744   8.666222   9.224460   9.259345
    32  C    6.679109   6.098020   7.953262   8.502762   8.546188
    33  H    6.525569   5.816069   7.763228   8.197294   8.497554
    34  C    5.420966   4.972754   6.709769   7.355478   7.199563
    35  H    5.854430   5.560844   7.129277   7.872596   7.450972
    36  H    4.938972   4.577605   6.164873   6.810581   6.619301
    37  C    4.634451   4.048374   5.949688   6.534980   6.574595
    38  N    3.489087   3.037010   4.797519   5.449329   5.364458
    39  C    3.560334   2.920347   4.771813   5.269708   5.507756
    40  H    3.142225   2.618330   4.197395   4.657441   4.927631
    41  N    4.710865   3.910519   5.902748   6.284611   6.740429
    42  H    5.274572   4.421853   6.363787   6.630080   7.274504
    43  C    5.325792   4.552845   6.596977   7.041283   7.378472
    44  H    6.328011   5.503791   7.586747   7.979321   8.408869
    45  H    7.191174   6.695337   8.421480   8.992210   8.937083
    46  Zn   2.990104   3.216434   4.116712   5.021167   4.191244
                   21         22         23         24         25
    21  H    0.000000
    22  H    4.847982   0.000000
    23  H    8.932586   6.341459   0.000000
    24  C    8.392922   5.465935   1.090206   0.000000
    25  H    8.230490   4.878255   1.797292   1.089987   0.000000
    26  C    7.167845   4.865929   2.170559   1.529555   2.161041
    27  H    6.474301   4.634571   2.506145   2.150872   2.493521
    28  H    7.601224   5.774472   2.477784   2.152368   3.056081
    29  S    6.569543   3.765318   3.758166   2.790954   2.980651
    30  H    9.145479   6.001627   1.731587   1.089753   1.795336
    31  H   10.319456   9.286074   6.863998   6.570718   7.515565
    32  C    9.594846   8.823663   6.269196   6.049302   7.020206
    33  H    9.548603   9.323861   7.049398   6.871164   7.831143
    34  C    8.244972   7.335101   5.541152   5.134799   5.997898
    35  H    8.467444   6.898387   4.947728   4.431923   5.269221
    36  H    7.637484   7.012863   5.028642   4.729258   5.597789
    37  C    7.645341   7.136700   6.681323   6.123335   6.834530
    38  N    6.428911   6.085737   6.707862   6.042687   6.584888
    39  C    6.545884   6.692838   8.010833   7.315012   7.801664
    40  H    5.910412   6.397440   8.576816   7.830895   8.196689
    41  N    7.778930   7.928580   8.662444   8.025161   8.621882
    42  H    8.276370   8.665530   9.669028   9.021401   9.601383
    43  C    8.446230   8.237829   7.988577   7.439714   8.159220
    44  H    9.477665   9.246498   8.500594   8.025541   8.819597
    45  H    9.953749   9.065856   5.708585   5.662608   6.700672
    46  Zn   5.175981   4.132822   5.563590   4.790877   5.082361
                   26         27         28         29         30
    26  C    0.000000
    27  H    1.090452   0.000000
    28  H    1.090177   1.770212   0.000000
    29  S    1.819720   2.401651   2.399004   0.000000
    30  H    2.144769   3.043044   2.455302   2.988971   0.000000
    31  H    5.797807   6.525914   4.881617   5.769418   6.108314
    32  C    5.156543   5.767378   4.175705   5.328682   5.745467
    33  H    5.850720   6.316889   4.865710   6.022998   6.675421
    34  C    4.037225   4.625231   3.200164   3.950209   4.950778
    35  H    3.516598   4.306124   2.788102   3.312626   4.096497
    36  H    3.502805   3.893835   2.618767   3.745263   4.763102
    37  C    4.873273   5.348138   4.256363   4.278356   5.996610
    38  N    4.670891   4.985852   4.309768   3.781727   6.074737
    39  C    5.947032   6.216164   5.625032   4.907577   7.327965
    40  H    6.442830   6.603160   6.268927   5.260489   7.923516
    41  N    6.724036   7.098155   6.237400   5.809796   7.912436
    42  H    7.724546   8.086596   7.246446   6.754799   8.890471
    43  C    6.229848   6.713244   5.584302   5.561834   7.236914
    44  H    6.909906   7.451959   6.161009   6.382207   7.734092
    45  H    4.932633   5.528646   3.874803   5.462922   5.372015
    46  Zn   3.393631   3.511659   3.497642   2.274966   5.069148
                   31         32         33         34         35
    31  H    0.000000
    32  C    1.090248   0.000000
    33  H    1.770589   1.089736   0.000000
    34  C    2.155276   1.512440   2.105849   0.000000
    35  H    2.458054   2.141970   3.015960   1.090565   0.000000
    36  H    3.037254   2.124898   2.474992   1.088027   1.754880
    37  C    2.873095   2.549750   2.687037   1.522076   2.141839
    38  N    4.163670   3.768961   3.879676   2.480328   2.856840
    39  C    4.829557   4.593885   4.509417   3.545713   3.989177
    40  H    5.904715   5.653720   5.550939   4.539702   4.914917
    41  N    4.263505   4.221825   4.002000   3.571179   4.135055
    42  H    4.946650   5.011933   4.692508   4.520310   5.086430
    43  C    2.965796   2.973295   2.809693   2.577539   3.222129
    44  H    2.560005   2.816145   2.531623   2.981699   3.639943
    45  H    1.841358   1.089854   1.754796   2.115556   2.517803
    46  Zn   5.526206   4.995993   5.325995   3.492519   3.431469
                   36         37         38         39         40
    36  H    0.000000
    37  C    2.123824   0.000000
    38  N    2.673338   1.320884   0.000000
    39  C    3.850118   2.083330   1.316824   0.000000
    40  H    4.733453   3.130265   2.126062   1.079397   0.000000
    41  N    4.110668   2.084442   2.149008   1.313483   2.131489
    42  H    5.081271   3.068054   3.113964   2.057049   2.509399
    43  C    3.296078   1.367079   2.233099   2.166810   3.201891
    44  H    3.792586   2.217213   3.279084   3.210961   4.207936
    45  H    2.330269   3.449143   4.544977   5.504000   6.534319
    46  Zn   3.247405   3.084834   2.047960   2.983883   3.176134
                   41         42         43         44         45
    41  N    0.000000
    42  H    1.009163   0.000000
    43  C    1.308930   2.055539   0.000000
    44  H    2.147945   2.543225   1.078806   0.000000
    45  H    5.250694   6.068430   4.035045   3.892835   0.000000
    46  Zn   4.117311   5.009000   4.240797   5.246853   5.451247
                   46
    46  Zn   0.000000
 Stoichiometry    C14H24N5OSZn(1+)
 Framework group  C1[X(C14H24N5OSZn)]
 Deg. of freedom   132
 Full point group                 C1
 Largest Abelian subgroup         C1      NOp   1
 Largest concise Abelian subgroup C1      NOp   1
                         Standard orientation:                         
 ---------------------------------------------------------------------
 Center     Atomic     Atomic              Coordinates (Angstroms)
 Number     Number      Type              X           Y           Z
 ---------------------------------------------------------------------
    1          1             0       -2.373981   -2.580552    2.829519
    2          6             0       -2.853300   -1.605557    2.916216
    3          1             0       -3.924981   -1.728484    2.760828
    4          1             0       -2.708668   -1.235240    3.930449
    5          6             0       -2.323303   -0.550562    1.945471
    6          8             0       -1.137472   -0.566142    1.566556
    7          7             0       -3.189905    0.349357    1.483457
    8          1             0       -4.159474    0.328975    1.764564
    9          6             0       -2.723206    1.426257    0.615928
   10          1             0       -1.649986    1.552760    0.760552
   11          6             0       -3.023790    1.186976   -0.873870
   12          1             0       -4.106902    1.188087   -1.010953
   13          1             0       -2.622021    2.026300   -1.442838
   14          6             0       -2.482643   -0.087584   -1.494363
   15          7             0       -1.260288   -0.537461   -1.261267
   16          6             0       -1.200866   -1.656445   -1.970973
   17          1             0       -0.352629   -2.319234   -1.997787
   18          7             0       -2.339775   -1.862000   -2.600584
   19          1             0       -2.518297   -2.639499   -3.220631
   20          6             0       -3.183131   -0.902061   -2.334312
   21          1             0       -4.193666   -0.785516   -2.678908
   22          1             0       -3.240778    2.343050    0.899780
   23          1             0        2.047485    5.349873   -0.891138
   24          6             0        1.551366    4.769058   -0.113277
   25          1             0        0.618563    5.242062    0.193673
   26          6             0        1.282553    3.340937   -0.590508
   27          1             0        0.617178    3.370415   -1.453927
   28          1             0        2.222301    2.878265   -0.892660
   29         16             0        0.518872    2.305846    0.696644
   30          1             0        2.260463    4.734946    0.713511
   31          1             0        5.634309   -0.349589    0.437508
   32          6             0        5.123378   -0.098300   -0.492247
   33          1             0        5.236610   -0.929917   -1.187312
   34          6             0        3.640001    0.080458   -0.257482
   35          1             0        3.478551    0.828556    0.519445
   36          1             0        3.189228    0.460614   -1.171861
   37          6             0        2.907067   -1.197567    0.124846
   38          7             0        1.588668   -1.270132    0.088879
   39          6             0        1.322950   -2.525379    0.385144
   40          1             0        0.330863   -2.945536    0.450934
   41          7             0        2.444964   -3.174484    0.597243
   42          1             0        2.495953   -4.151433    0.844995
   43          6             0        3.484692   -2.392846    0.451284
   44          1             0        4.528257   -2.656741    0.523077
   45          1             0        5.488534    0.796192   -0.996554
   46         30             0        0.155488    0.186532   -0.046275
 ---------------------------------------------------------------------
 Rotational constants (GHZ):      0.2737654      0.1937206      0.1543222
 Standard basis: 6-31G(d) (6D, 7F)
 There are   403 symmetry adapted basis functions of A   symmetry.
 Integral buffers will be    131072 words long.
 Raffenetti 2 integral format.
 Two-electron integral symmetry is turned on.
   403 basis functions,   812 primitive gaussians,   406 cartesian basis functions
    98 alpha electrons       98 beta electrons
       nuclear repulsion energy      2684.4285624640 Hartrees.
 NAtoms=   46 NActive=   46 NUniq=   46 SFac= 7.50D-01 NAtFMM=   80 NAOKFM=F Big=F
 One-electron integrals computed using PRISM.
 NBasis=   403 RedAO= T  NBF=   403
 NBsUse=   403 1.00D-06 NBFU=   403
 Harris functional with IExCor=  402 diagonalized for initial guess.
 ExpMin= 4.93D-02 ExpMax= 8.24D+04 ExpMxC= 1.24D+04 IAcc=3 IRadAn=         5 AccDes= 0.00D+00
 HarFok:  IExCor= 402 AccDes= 0.00D+00 IRadAn=         5 IDoV=1
 ScaDFX=  1.000000  1.000000  1.000000  1.000000
 Initial guess orbital symmetries:
       Occupied  (A) (A) (A) (A) (A) (A) (A) (A) (A) (A) (A) (A)
                 (A) (A) (A) (A) (A) (A) (A) (A) (A) (A) (A) (A)
                 (A) (A) (A) (A) (A) (A) (A) (A) (A) (A) (A) (A)
                 (A) (A) (A) (A) (A) (A) (A) (A) (A) (A) (A) (A)
                 (A) (A) (A) (A) (A) (A) (A) (A) (A) (A) (A) (A)
                 (A) (A) (A) (A) (A) (A) (A) (A) (A) (A) (A) (A)
                 (A) (A) (A) (A) (A) (A) (A) (A) (A) (A) (A) (A)
                 (A) (A) (A) (A) (A) (A) (A) (A) (A) (A) (A) (A)
                 (A) (A)
       Virtual   (A) (A) (A) (A) (A) (A) (A) (A) (A) (A) (A) (A)
                 (A) (A) (A) (A) (A) (A) (A) (A) (A) (A) (A) (A)
                 (A) (A) (A) (A) (A) (A) (A) (A) (A) (A) (A) (A)
                 (A) (A) (A) (A) (A) (A) (A) (A) (A) (A) (A) (A)
                 (A) (A) (A) (A) (A) (A) (A) (A) (A) (A) (A) (A)
                 (A) (A) (A) (A) (A) (A) (A) (A) (A) (A) (A) (A)
                 (A) (A) (A) (A) (A) (A) (A) (A) (A) (A) (A) (A)
                 (A) (A) (A) (A) (A) (A) (A) (A) (A) (A) (A) (A)
                 (A) (A) (A) (A) (A) (A) (A) (A) (A) (A) (A) (A)
                 (A) (A) (A) (A) (A) (A) (A) (A) (A) (A) (A) (A)
                 (A) (A) (A) (A) (A) (A) (A) (A) (A) (A) (A) (A)
                 (A) (A) (A) (A) (A) (A) (A) (A) (A) (A) (A) (A)
                 (A) (A) (A) (A) (A) (A) (A) (A) (A) (A) (A) (A)
                 (A) (A) (A) (A) (A) (A) (A) (A) (A) (A) (A) (A)
                 (A) (A) (A) (A) (A) (A) (A) (A) (A) (A) (A) (A)
                 (A) (A) (A) (A) (A) (A) (A) (A) (A) (A) (A) (A)
                 (A) (A) (A) (A) (A) (A) (A) (A) (A) (A) (A) (A)
                 (A) (A) (A) (A) (A) (A) (A) (A) (A) (A) (A) (A)
                 (A) (A) (A) (A) (A) (A) (A) (A) (A) (A) (A) (A)
                 (A) (A) (A) (A) (A) (A) (A) (A) (A) (A) (A) (A)
                 (A) (A) (A) (A) (A) (A) (A) (A) (A) (A) (A) (A)
                 (A) (A) (A) (A) (A) (A) (A) (A) (A) (A) (A) (A)
                 (A) (A) (A) (A) (A) (A) (A) (A) (A) (A) (A) (A)
                 (A) (A) (A) (A) (A) (A) (A) (A) (A) (A) (A) (A)
                 (A) (A) (A) (A) (A) (A) (A) (A) (A) (A) (A) (A)
                 (A) (A) (A) (A) (A)
 The electronic state of the initial guess is 1-A.
 Requested convergence on RMS density matrix=1.00D-08 within 128 cycles.
 Requested convergence on MAX density matrix=1.00D-06.
 Requested convergence on             energy=1.00D-06.
 No special actions if energy rises.
 SCF Done:  E(RB+HF-LYP) =  -3074.15028213     A.U. after   13 cycles
             Convg  =    0.5917D-08             -V/T =  2.0038
             S**2   =   0.0000
 QCSCF skips out because SCF is already converged.

 **********************************************************************

            Population analysis using the SCF density.

 **********************************************************************

 Orbital symmetries:
       Occupied  (A) (A) (A) (A) (A) (A) (A) (A) (A) (A) (A) (A)
                 (A) (A) (A) (A) (A) (A) (A) (A) (A) (A) (A) (A)
                 (A) (A) (A) (A) (A) (A) (A) (A) (A) (A) (A) (A)
                 (A) (A) (A) (A) (A) (A) (A) (A) (A) (A) (A) (A)
                 (A) (A) (A) (A) (A) (A) (A) (A) (A) (A) (A) (A)
                 (A) (A) (A) (A) (A) (A) (A) (A) (A) (A) (A) (A)
                 (A) (A) (A) (A) (A) (A) (A) (A) (A) (A) (A) (A)
                 (A) (A) (A) (A) (A) (A) (A) (A) (A) (A) (A) (A)
                 (A) (A)
       Virtual   (A) (A) (A) (A) (A) (A) (A) (A) (A) (A) (A) (A)
                 (A) (A) (A) (A) (A) (A) (A) (A) (A) (A) (A) (A)
                 (A) (A) (A) (A) (A) (A) (A) (A) (A) (A) (A) (A)
                 (A) (A) (A) (A) (A) (A) (A) (A) (A) (A) (A) (A)
                 (A) (A) (A) (A) (A) (A) (A) (A) (A) (A) (A) (A)
                 (A) (A) (A) (A) (A) (A) (A) (A) (A) (A) (A) (A)
                 (A) (A) (A) (A) (A) (A) (A) (A) (A) (A) (A) (A)
                 (A) (A) (A) (A) (A) (A) (A) (A) (A) (A) (A) (A)
                 (A) (A) (A) (A) (A) (A) (A) (A) (A) (A) (A) (A)
                 (A) (A) (A) (A) (A) (A) (A) (A) (A) (A) (A) (A)
                 (A) (A) (A) (A) (A) (A) (A) (A) (A) (A) (A) (A)
                 (A) (A) (A) (A) (A) (A) (A) (A) (A) (A) (A) (A)
                 (A) (A) (A) (A) (A) (A) (A) (A) (A) (A) (A) (A)
                 (A) (A) (A) (A) (A) (A) (A) (A) (A) (A) (A) (A)
                 (A) (A) (A) (A) (A) (A) (A) (A) (A) (A) (A) (A)
                 (A) (A) (A) (A) (A) (A) (A) (A) (A) (A) (A) (A)
                 (A) (A) (A) (A) (A) (A) (A) (A) (A) (A) (A) (A)
                 (A) (A) (A) (A) (A) (A) (A) (A) (A) (A) (A) (A)
                 (A) (A) (A) (A) (A) (A) (A) (A) (A) (A) (A) (A)
                 (A) (A) (A) (A) (A) (A) (A) (A) (A) (A) (A) (A)
                 (A) (A) (A) (A) (A) (A) (A) (A) (A) (A) (A) (A)
                 (A) (A) (A) (A) (A) (A) (A) (A) (A) (A) (A) (A)
                 (A) (A) (A) (A) (A) (A) (A) (A) (A) (A) (A) (A)
                 (A) (A) (A) (A) (A) (A) (A) (A) (A) (A) (A) (A)
                 (A) (A) (A) (A) (A) (A) (A) (A) (A) (A) (A) (A)
                 (A) (A) (A) (A) (A)
 The electronic state is 1-A.
 Alpha  occ. eigenvalues -- -347.35807 -88.90082 -42.32542 -37.31031 -37.30912
 Alpha  occ. eigenvalues --  -37.30849 -19.24729 -14.54328 -14.53019 -14.48735
 Alpha  occ. eigenvalues --  -14.48503 -14.47458 -10.41587 -10.38668 -10.37462
 Alpha  occ. eigenvalues --  -10.34252 -10.33917 -10.32956 -10.32431 -10.32078
 Alpha  occ. eigenvalues --  -10.30488 -10.30122 -10.28004 -10.27393 -10.26281
 Alpha  occ. eigenvalues --  -10.23735  -7.96432  -5.92876  -5.92456  -5.92049
 Alpha  occ. eigenvalues --   -4.90450  -3.29693  -3.29495  -3.29391  -1.19686
 Alpha  occ. eigenvalues --   -1.18606  -1.16180  -1.04923  -1.04514  -1.03448
 Alpha  occ. eigenvalues --   -0.91621  -0.90405  -0.87731  -0.84937  -0.84678
 Alpha  occ. eigenvalues --   -0.84056  -0.77963  -0.77123  -0.76995  -0.74484
 Alpha  occ. eigenvalues --   -0.73971  -0.73192  -0.71422  -0.70607  -0.68567
 Alpha  occ. eigenvalues --   -0.66979  -0.64848  -0.62760  -0.61062  -0.60729
 Alpha  occ. eigenvalues --   -0.60171  -0.59428  -0.58844  -0.58498  -0.57771
 Alpha  occ. eigenvalues --   -0.57264  -0.56836  -0.56289  -0.55583  -0.55447
 Alpha  occ. eigenvalues --   -0.55211  -0.54382  -0.54185  -0.54016  -0.52799
 Alpha  occ. eigenvalues --   -0.52190  -0.51873  -0.51109  -0.49878  -0.49140
 Alpha  occ. eigenvalues --   -0.48775  -0.47079  -0.46720  -0.45897  -0.45426
 Alpha  occ. eigenvalues --   -0.44892  -0.44470  -0.43848  -0.43465  -0.42402
 Alpha  occ. eigenvalues --   -0.42044  -0.39834  -0.38225  -0.37787  -0.36110
 Alpha  occ. eigenvalues --   -0.34837  -0.32117  -0.28169
 Alpha virt. eigenvalues --   -0.11688  -0.10427  -0.09871  -0.08757  -0.06715
 Alpha virt. eigenvalues --   -0.05988  -0.04996  -0.04710  -0.03902  -0.02627
 Alpha virt. eigenvalues --   -0.01701  -0.00872  -0.00054   0.00656   0.01579
 Alpha virt. eigenvalues --    0.02104   0.02946   0.03359   0.04532   0.04755
 Alpha virt. eigenvalues --    0.05041   0.05671   0.06666   0.06952   0.07730
 Alpha virt. eigenvalues --    0.07840   0.08021   0.09005   0.09188   0.09540
 Alpha virt. eigenvalues --    0.09651   0.10076   0.10507   0.10847   0.11093
 Alpha virt. eigenvalues --    0.11894   0.12215   0.12937   0.13331   0.13863
 Alpha virt. eigenvalues --    0.14994   0.15447   0.16748   0.17717   0.18120
 Alpha virt. eigenvalues --    0.18857   0.19034   0.20196   0.21828   0.22090
 Alpha virt. eigenvalues --    0.25140   0.26042   0.29319   0.30489   0.30748
 Alpha virt. eigenvalues --    0.33463   0.33760   0.34920   0.36095   0.37128
 Alpha virt. eigenvalues --    0.39780   0.40483   0.41507   0.41792   0.42892
 Alpha virt. eigenvalues --    0.43492   0.44232   0.44874   0.45229   0.45503
 Alpha virt. eigenvalues --    0.46208   0.46583   0.47460   0.47765   0.48351
 Alpha virt. eigenvalues --    0.48475   0.48913   0.50039   0.50127   0.50303
 Alpha virt. eigenvalues --    0.51648   0.52396   0.52778   0.53864   0.55297
 Alpha virt. eigenvalues --    0.55787   0.56279   0.56844   0.57526   0.58835
 Alpha virt. eigenvalues --    0.59246   0.60912   0.61073   0.62862   0.64064
 Alpha virt. eigenvalues --    0.64545   0.66094   0.66417   0.67220   0.67656
 Alpha virt. eigenvalues --    0.68183   0.68549   0.69166   0.69624   0.70524
 Alpha virt. eigenvalues --    0.70945   0.71705   0.73298   0.73953   0.74209
 Alpha virt. eigenvalues --    0.74794   0.75566   0.75780   0.76118   0.78132
 Alpha virt. eigenvalues --    0.78266   0.79146   0.79617   0.80456   0.80783
 Alpha virt. eigenvalues --    0.81479   0.81854   0.82389   0.82793   0.83659
 Alpha virt. eigenvalues --    0.84038   0.84597   0.85275   0.86043   0.86433
 Alpha virt. eigenvalues --    0.86790   0.87635   0.88164   0.89478   0.90768
 Alpha virt. eigenvalues --    0.91666   0.92026   0.92666   0.94066   0.95651
 Alpha virt. eigenvalues --    0.97101   0.97477   0.98752   1.00053   1.00738
 Alpha virt. eigenvalues --    1.03491   1.05230   1.06075   1.07788   1.09114
 Alpha virt. eigenvalues --    1.10975   1.12487   1.13379   1.14612   1.15623
 Alpha virt. eigenvalues --    1.16693   1.18564   1.19102   1.20344   1.21339
 Alpha virt. eigenvalues --    1.22589   1.23815   1.24642   1.24782   1.27166
 Alpha virt. eigenvalues --    1.27906   1.29795   1.30698   1.33628   1.34998
 Alpha virt. eigenvalues --    1.36815   1.38930   1.39508   1.40484   1.41132
 Alpha virt. eigenvalues --    1.41849   1.44324   1.46578   1.47106   1.50719
 Alpha virt. eigenvalues --    1.52289   1.52723   1.54443   1.56685   1.60699
 Alpha virt. eigenvalues --    1.62600   1.63101   1.63169   1.65616   1.67627
 Alpha virt. eigenvalues --    1.70077   1.71618   1.72184   1.72671   1.74626
 Alpha virt. eigenvalues --    1.78411   1.79034   1.80736   1.81437   1.81670
 Alpha virt. eigenvalues --    1.82502   1.87013   1.87250   1.88812   1.89460
 Alpha virt. eigenvalues --    1.92689   1.92991   1.93245   1.93761   1.94585
 Alpha virt. eigenvalues --    1.95801   1.96005   1.97879   1.98207   1.98464
 Alpha virt. eigenvalues --    2.02419   2.05037   2.06800   2.06901   2.09122
 Alpha virt. eigenvalues --    2.09395   2.10147   2.10914   2.11323   2.12244
 Alpha virt. eigenvalues --    2.12925   2.14062   2.15504   2.16266   2.17325
 Alpha virt. eigenvalues --    2.17683   2.19955   2.21293   2.21574   2.22707
 Alpha virt. eigenvalues --    2.23119   2.23285   2.24323   2.24726   2.25409
 Alpha virt. eigenvalues --    2.25959   2.26647   2.27220   2.28478   2.28829
 Alpha virt. eigenvalues --    2.29988   2.30565   2.31666   2.33456   2.34626
 Alpha virt. eigenvalues --    2.36381   2.39125   2.40483   2.41595   2.42119
 Alpha virt. eigenvalues --    2.44695   2.48086   2.49271   2.50293   2.51034
 Alpha virt. eigenvalues --    2.51807   2.52974   2.54420   2.54800   2.57129
 Alpha virt. eigenvalues --    2.59012   2.59620   2.60600   2.61144   2.64482
 Alpha virt. eigenvalues --    2.68358   2.70949   2.74348   2.75638   2.78658
 Alpha virt. eigenvalues --    2.89571   2.91632   2.92483   3.04461   3.05598
 Alpha virt. eigenvalues --    3.05962   3.07939   3.08371   3.82653   3.83976
 Alpha virt. eigenvalues --    3.87087   3.89996   3.95065   3.98876   4.00918
 Alpha virt. eigenvalues --    4.04795   4.06107   4.09205   4.11473   4.14950
 Alpha virt. eigenvalues --    4.18982   4.19495   4.22249   4.23940   4.33033
 Alpha virt. eigenvalues --    4.34014   4.39792   4.48312   4.51652  47.28746
          Condensed to atoms (all electrons):
              1          2          3          4          5          6
     1  H    0.500862   0.365476  -0.026089  -0.020493  -0.017188   0.000445
     2  C    0.365476   5.259504   0.353434   0.363233   0.373538  -0.070879
     3  H   -0.026089   0.353434   0.548473  -0.023410  -0.031267   0.002563
     4  H   -0.020493   0.363233  -0.023410   0.484826  -0.020102   0.000173
     5  C   -0.017188   0.373538  -0.031267  -0.020102   4.368820   0.459998
     6  O    0.000445  -0.070879   0.002563   0.000173   0.459998   8.128518
     7  N    0.002699  -0.109075   0.004357  -0.000245   0.304925  -0.086413
     8  H   -0.000033   0.000508   0.002391   0.000220  -0.021832   0.002966
     9  C   -0.000105   0.006667   0.000032  -0.000191  -0.017417   0.004035
    10  H   -0.000004   0.000231  -0.000003   0.000000  -0.006024   0.003507
    11  C    0.000012  -0.000179   0.000001  -0.000008  -0.004370  -0.000933
    12  H    0.000000   0.000002   0.000003   0.000000  -0.000002  -0.000042
    13  H    0.000000   0.000002   0.000000   0.000000   0.000053  -0.000048
    14  C   -0.000010  -0.000102   0.000010   0.000002   0.004158   0.001119
    15  N    0.000004  -0.000090   0.000007   0.000000   0.002626  -0.014006
    16  C    0.000003  -0.000007  -0.000001   0.000000   0.000213  -0.000115
    17  H   -0.000001   0.000002   0.000000   0.000000   0.000002  -0.000050
    18  N    0.000000   0.000001   0.000000   0.000000  -0.000058  -0.000022
    19  H    0.000000   0.000000   0.000000   0.000000  -0.000002   0.000001
    20  C   -0.000001  -0.000004   0.000003   0.000000   0.000010  -0.000028
    21  H    0.000000   0.000000   0.000000   0.000000   0.000002   0.000000
    22  H    0.000000  -0.000182  -0.000019   0.000018   0.004316   0.000776
    23  H    0.000000   0.000000   0.000000   0.000000   0.000000   0.000000
    24  C    0.000000   0.000000   0.000000   0.000000   0.000000   0.000000
    25  H    0.000000   0.000000   0.000000   0.000000   0.000000   0.000000
    26  C    0.000000   0.000000   0.000000   0.000000   0.000002   0.000044
    27  H    0.000000   0.000000   0.000000   0.000000   0.000000  -0.000001
    28  H    0.000000   0.000000   0.000000   0.000000   0.000000  -0.000001
    29  S   -0.000002  -0.000033   0.000000  -0.000001   0.000114  -0.007227
    30  H    0.000000   0.000000   0.000000   0.000000   0.000000   0.000000
    31  H    0.000000   0.000000   0.000000   0.000000   0.000000   0.000000
    32  C    0.000000   0.000000   0.000000   0.000000   0.000000   0.000000
    33  H    0.000000   0.000000   0.000000   0.000000   0.000000   0.000000
    34  C    0.000000   0.000000   0.000000   0.000000   0.000000   0.000000
    35  H    0.000000   0.000000   0.000000   0.000000   0.000000  -0.000003
    36  H    0.000000   0.000000   0.000000   0.000000   0.000000   0.000000
    37  C    0.000000   0.000000   0.000000   0.000000  -0.000008  -0.000233
    38  N   -0.000005   0.000001   0.000000   0.000000  -0.000110  -0.005294
    39  C   -0.000010  -0.000039   0.000001   0.000001   0.000035   0.000498
    40  H    0.000197  -0.000020  -0.000002  -0.000001   0.000119   0.001092
    41  N    0.000000   0.000000   0.000000   0.000000   0.000001   0.000022
    42  H    0.000000   0.000000   0.000000   0.000000   0.000000   0.000000
    43  C    0.000000   0.000000   0.000000   0.000000   0.000001   0.000009
    44  H    0.000000   0.000000   0.000000   0.000000   0.000000   0.000000
    45  H    0.000000   0.000000   0.000000   0.000000   0.000000   0.000000
    46  Zn   0.001084  -0.004142   0.000326   0.000207  -0.023701   0.133916
              7          8          9         10         11         12
     1  H    0.002699  -0.000033  -0.000105  -0.000004   0.000012   0.000000
     2  C   -0.109075   0.000508   0.006667   0.000231  -0.000179   0.000002
     3  H    0.004357   0.002391   0.000032  -0.000003   0.000001   0.000003
     4  H   -0.000245   0.000220  -0.000191   0.000000  -0.000008   0.000000
     5  C    0.304925  -0.021832  -0.017417  -0.006024  -0.004370  -0.000002
     6  O   -0.086413   0.002966   0.004035   0.003507  -0.000933  -0.000042
     7  N    7.033124   0.308316   0.202691  -0.031533  -0.057393  -0.002139
     8  H    0.308316   0.379716  -0.022671   0.003380   0.000814   0.001548
     9  C    0.202691  -0.022671   5.120148   0.323115   0.343503  -0.033801
    10  H   -0.031533   0.003380   0.323115   0.522540  -0.041056   0.004845
    11  C   -0.057393   0.000814   0.343503  -0.041056   5.167903   0.365940
    12  H   -0.002139   0.001548  -0.033801   0.004845   0.365940   0.575602
    13  H    0.004431  -0.000145  -0.033873  -0.003000   0.361316  -0.027759
    14  C    0.000681  -0.000015  -0.033482  -0.005808   0.380427  -0.035271
    15  N   -0.000607   0.000006  -0.000498  -0.000276  -0.069166   0.004222
    16  C   -0.000163   0.000004   0.000621   0.000027   0.009288  -0.000151
    17  H   -0.000002   0.000000   0.000008   0.000002  -0.000245   0.000005
    18  N   -0.000021   0.000001  -0.000132   0.000006   0.006038   0.000189
    19  H   -0.000001   0.000000   0.000003   0.000000  -0.000147  -0.000009
    20  C    0.000394   0.000002   0.001737  -0.000052  -0.070205  -0.005488
    21  H   -0.000007  -0.000001   0.000060   0.000001  -0.003325   0.002696
    22  H   -0.038393  -0.002942   0.378969  -0.019506  -0.040524  -0.004455
    23  H    0.000000   0.000000   0.000000  -0.000001   0.000000   0.000000
    24  C    0.000000   0.000000  -0.000003  -0.000013   0.000001   0.000000
    25  H    0.000000   0.000000  -0.000017   0.000040   0.000000   0.000000
    26  C   -0.000003   0.000000   0.000456  -0.000864  -0.000107   0.000001
    27  H   -0.000001   0.000000   0.000248  -0.000501  -0.000011   0.000000
    28  H    0.000000   0.000000  -0.000033   0.000142   0.000001   0.000000
    29  S    0.002895  -0.000087  -0.057391   0.043279   0.002350  -0.000093
    30  H    0.000000   0.000000   0.000001  -0.000004   0.000000   0.000000
    31  H    0.000000   0.000000   0.000000   0.000000   0.000000   0.000000
    32  C    0.000000   0.000000   0.000000   0.000000   0.000000   0.000000
    33  H    0.000000   0.000000   0.000000   0.000000   0.000000   0.000000
    34  C    0.000000   0.000000   0.000000   0.000005   0.000000   0.000000
    35  H    0.000000   0.000000   0.000000   0.000001   0.000000   0.000000
    36  H    0.000000   0.000000   0.000000   0.000001   0.000000   0.000000
    37  C    0.000000   0.000000  -0.000001  -0.000015   0.000000   0.000000
    38  N   -0.000004   0.000000  -0.000018   0.000189   0.000000   0.000000
    39  C    0.000004   0.000000   0.000000   0.000010   0.000001   0.000000
    40  H   -0.000007   0.000000   0.000002   0.000004   0.000000   0.000000
    41  N    0.000000   0.000000   0.000000   0.000000   0.000000   0.000000
    42  H    0.000000   0.000000   0.000000   0.000000   0.000000   0.000000
    43  C    0.000000   0.000000   0.000000   0.000000   0.000000   0.000000
    44  H    0.000000   0.000000   0.000000   0.000000   0.000000   0.000000
    45  H    0.000000   0.000000   0.000000   0.000000   0.000000   0.000000
    46  Zn   0.012820  -0.001319  -0.014718   0.011341  -0.003486  -0.000834
             13         14         15         16         17         18
     1  H    0.000000  -0.000010   0.000004   0.000003  -0.000001   0.000000
     2  C    0.000002  -0.000102  -0.000090  -0.000007   0.000002   0.000001
     3  H    0.000000   0.000010   0.000007  -0.000001   0.000000   0.000000
     4  H    0.000000   0.000002   0.000000   0.000000   0.000000   0.000000
     5  C    0.000053   0.004158   0.002626   0.000213   0.000002  -0.000058
     6  O   -0.000048   0.001119  -0.014006  -0.000115  -0.000050  -0.000022
     7  N    0.004431   0.000681  -0.000607  -0.000163  -0.000002  -0.000021
     8  H   -0.000145  -0.000015   0.000006   0.000004   0.000000   0.000001
     9  C   -0.033873  -0.033482  -0.000498   0.000621   0.000008  -0.000132
    10  H   -0.003000  -0.005808  -0.000276   0.000027   0.000002   0.000006
    11  C    0.361316   0.380427  -0.069166   0.009288  -0.000245   0.006038
    12  H   -0.027759  -0.035271   0.004222  -0.000151   0.000005   0.000189
    13  H    0.530875  -0.031522  -0.002457  -0.000057   0.000004  -0.000047
    14  C   -0.031522   4.677914   0.385372  -0.115511   0.003853  -0.025067
    15  N   -0.002457   0.385372   6.837315   0.420796  -0.041975  -0.067190
    16  C   -0.000057  -0.115511   0.420796   4.854241   0.378427   0.411789
    17  H    0.000004   0.003853  -0.041975   0.378427   0.503113  -0.045716
    18  N   -0.000047  -0.025067  -0.067190   0.411789  -0.045716   6.642743
    19  H    0.000005   0.006364   0.004852  -0.030796  -0.001092   0.318408
    20  C   -0.000365   0.549494  -0.046924  -0.122245   0.005456   0.317838
    21  H    0.000035  -0.029100   0.004607   0.005130  -0.000080  -0.042606
    22  H   -0.000584   0.004443   0.000078   0.000011   0.000000   0.000001
    23  H    0.000000   0.000000   0.000000   0.000000   0.000000   0.000000
    24  C   -0.000004   0.000000  -0.000001   0.000000   0.000000   0.000000
    25  H    0.000002   0.000000   0.000000   0.000000   0.000000   0.000000
    26  C   -0.000008  -0.000018  -0.000059   0.000000   0.000000   0.000000
    27  H    0.000043   0.000017   0.000058   0.000000   0.000000   0.000000
    28  H    0.000004   0.000002  -0.000013  -0.000001   0.000000   0.000000
    29  S    0.001704   0.000735  -0.007487  -0.000475  -0.000040   0.000016
    30  H    0.000000   0.000000   0.000000   0.000000   0.000000   0.000000
    31  H    0.000000   0.000000   0.000000   0.000000   0.000000   0.000000
    32  C    0.000000   0.000000   0.000000   0.000000   0.000000   0.000000
    33  H    0.000000   0.000000   0.000000   0.000000   0.000000   0.000000
    34  C    0.000000   0.000000   0.000001   0.000003  -0.000013   0.000000
    35  H    0.000000   0.000000  -0.000002   0.000000  -0.000001   0.000000
    36  H    0.000000   0.000000  -0.000050  -0.000012   0.000009   0.000000
    37  C    0.000000   0.000008  -0.000105   0.000037  -0.000345   0.000001
    38  N   -0.000001  -0.000030  -0.009963   0.000814   0.001665   0.000057
    39  C    0.000000  -0.000076   0.000236  -0.001713   0.006243   0.000004
    40  H    0.000000  -0.000132   0.000508   0.002315   0.000644  -0.000002
    41  N    0.000000   0.000000   0.000017  -0.000033   0.000058   0.000000
    42  H    0.000000   0.000000   0.000000   0.000000  -0.000008   0.000000
    43  C    0.000000   0.000000  -0.000002   0.000002  -0.000073   0.000000
    44  H    0.000000   0.000000   0.000000   0.000000   0.000000   0.000000
    45  H    0.000000   0.000000   0.000000   0.000000   0.000000   0.000000
    46  Zn   0.002485  -0.023199   0.172074  -0.037470  -0.005165   0.002112
             19         20         21         22         23         24
     1  H    0.000000  -0.000001   0.000000   0.000000   0.000000   0.000000
     2  C    0.000000  -0.000004   0.000000  -0.000182   0.000000   0.000000
     3  H    0.000000   0.000003   0.000000  -0.000019   0.000000   0.000000
     4  H    0.000000   0.000000   0.000000   0.000018   0.000000   0.000000
     5  C   -0.000002   0.000010   0.000002   0.004316   0.000000   0.000000
     6  O    0.000001  -0.000028   0.000000   0.000776   0.000000   0.000000
     7  N   -0.000001   0.000394  -0.000007  -0.038393   0.000000   0.000000
     8  H    0.000000   0.000002  -0.000001  -0.002942   0.000000   0.000000
     9  C    0.000003   0.001737   0.000060   0.378969   0.000000  -0.000003
    10  H    0.000000  -0.000052   0.000001  -0.019506  -0.000001  -0.000013
    11  C   -0.000147  -0.070205  -0.003325  -0.040524   0.000000   0.000001
    12  H   -0.000009  -0.005488   0.002696  -0.004455   0.000000   0.000000
    13  H    0.000005  -0.000365   0.000035  -0.000584   0.000000  -0.000004
    14  C    0.006364   0.549494  -0.029100   0.004443   0.000000   0.000000
    15  N    0.004852  -0.046924   0.004607   0.000078   0.000000  -0.000001
    16  C   -0.030796  -0.122245   0.005130   0.000011   0.000000   0.000000
    17  H   -0.001092   0.005456  -0.000080   0.000000   0.000000   0.000000
    18  N    0.318408   0.317838  -0.042606   0.000001   0.000000   0.000000
    19  H    0.358860  -0.027338  -0.002492   0.000000   0.000000   0.000000
    20  C   -0.027338   5.024424   0.374529  -0.000122   0.000000   0.000000
    21  H   -0.002492   0.374529   0.486484  -0.000001   0.000000   0.000000
    22  H    0.000000  -0.000122  -0.000001   0.534866   0.000000   0.000001
    23  H    0.000000   0.000000   0.000000   0.000000   0.565934   0.366806
    24  C    0.000000   0.000000   0.000000   0.000001   0.366806   5.083664
    25  H    0.000000   0.000000   0.000000   0.000002  -0.026824   0.382387
    26  C    0.000000   0.000000   0.000000   0.000003  -0.026651   0.353340
    27  H    0.000000   0.000000   0.000000  -0.000010  -0.002723  -0.040081
    28  H    0.000000   0.000000   0.000000   0.000000  -0.002511  -0.036057
    29  S    0.000000  -0.000093   0.000000   0.000756   0.004520  -0.049914
    30  H    0.000000   0.000000   0.000000   0.000000  -0.033779   0.380990
    31  H    0.000000   0.000000   0.000000   0.000000   0.000000   0.000000
    32  C    0.000000   0.000000   0.000000   0.000000   0.000000   0.000000
    33  H    0.000000   0.000000   0.000000   0.000000   0.000000   0.000000
    34  C    0.000000   0.000000   0.000000   0.000000   0.000000   0.000005
    35  H    0.000000   0.000000   0.000000   0.000000  -0.000001  -0.000026
    36  H    0.000000   0.000000   0.000000   0.000000   0.000001   0.000004
    37  C    0.000000   0.000000   0.000000   0.000000   0.000000   0.000000
    38  N    0.000001  -0.000004   0.000000   0.000000   0.000000  -0.000001
    39  C    0.000000   0.000000   0.000000   0.000000   0.000000   0.000000
    40  H   -0.000004  -0.000013   0.000000   0.000000   0.000000   0.000000
    41  N    0.000000   0.000000   0.000000   0.000000   0.000000   0.000000
    42  H    0.000000   0.000000   0.000000   0.000000   0.000000   0.000000
    43  C    0.000000   0.000000   0.000000   0.000000   0.000000   0.000000
    44  H    0.000000   0.000000   0.000000   0.000000   0.000000   0.000000
    45  H    0.000000   0.000000   0.000000   0.000000   0.000000   0.000000
    46  Zn   0.000548   0.004339   0.000087  -0.000101  -0.000337  -0.002160
             25         26         27         28         29         30
     1  H    0.000000   0.000000   0.000000   0.000000  -0.000002   0.000000
     2  C    0.000000   0.000000   0.000000   0.000000  -0.000033   0.000000
     3  H    0.000000   0.000000   0.000000   0.000000   0.000000   0.000000
     4  H    0.000000   0.000000   0.000000   0.000000  -0.000001   0.000000
     5  C    0.000000   0.000002   0.000000   0.000000   0.000114   0.000000
     6  O    0.000000   0.000044  -0.000001  -0.000001  -0.007227   0.000000
     7  N    0.000000  -0.000003  -0.000001   0.000000   0.002895   0.000000
     8  H    0.000000   0.000000   0.000000   0.000000  -0.000087   0.000000
     9  C   -0.000017   0.000456   0.000248  -0.000033  -0.057391   0.000001
    10  H    0.000040  -0.000864  -0.000501   0.000142   0.043279  -0.000004
    11  C    0.000000  -0.000107  -0.000011   0.000001   0.002350   0.000000
    12  H    0.000000   0.000001   0.000000   0.000000  -0.000093   0.000000
    13  H    0.000002  -0.000008   0.000043   0.000004   0.001704   0.000000
    14  C    0.000000  -0.000018   0.000017   0.000002   0.000735   0.000000
    15  N    0.000000  -0.000059   0.000058  -0.000013  -0.007487   0.000000
    16  C    0.000000   0.000000   0.000000  -0.000001  -0.000475   0.000000
    17  H    0.000000   0.000000   0.000000   0.000000  -0.000040   0.000000
    18  N    0.000000   0.000000   0.000000   0.000000   0.000016   0.000000
    19  H    0.000000   0.000000   0.000000   0.000000   0.000000   0.000000
    20  C    0.000000   0.000000   0.000000   0.000000  -0.000093   0.000000
    21  H    0.000000   0.000000   0.000000   0.000000   0.000000   0.000000
[...]
    40  H    0.000000   0.000000   0.000000   0.000000   0.000000   0.000000
    41  N    0.000000   0.000000   0.000000   0.000000   0.000000   0.000000
    42  H    0.000000   0.000000   0.000000   0.000000   0.000000   0.000000
    43  C    0.000000   0.000000   0.000000   0.000000   0.000000   0.000000
    44  H    0.000000   0.000000   0.000000   0.000000   0.000000   0.000000
    45  H    0.000000   0.000000   0.000000   0.000000   0.000000   0.000000
    46  Zn   0.000184   0.002897   0.000039   0.001364  -0.000352  -0.003501
             25         26         27         28         29         30
     1  H    0.000000   0.000000   0.000000   0.000000  -0.000001   0.000000
     2  C    0.000000   0.000000   0.000000   0.000000  -0.000040   0.000000
     3  H    0.000000   0.000000   0.000000   0.000000   0.000001   0.000000
     4  H    0.000000   0.000000   0.000000   0.000000  -0.000001   0.000000
     5  C    0.000000  -0.000001   0.000003  -0.000001  -0.000811   0.000000
     6  O    0.000000   0.000023   0.000000  -0.000002  -0.007601   0.000000
     7  N    0.000000   0.000003  -0.000005   0.000000   0.001294   0.000000
     8  H    0.000000   0.000000   0.000000   0.000000  -0.000027   0.000000
     9  C   -0.000011  -0.000141   0.001109  -0.000045  -0.024743   0.000000
    10  H    0.000015  -0.000124  -0.001225   0.000092   0.025366  -0.000002
    11  C    0.000001  -0.000384  -0.000419   0.000015   0.002220   0.000000
    12  H    0.000000   0.000009   0.000019   0.000000  -0.000038   0.000000
    13  H    0.000000   0.000246   0.002632  -0.000021  -0.000110   0.000001
    14  C    0.000000  -0.000244   0.000605  -0.000003  -0.000066   0.000000
    15  N    0.000000  -0.000261   0.000867  -0.000128  -0.010810   0.000000
    16  C    0.000000  -0.000081  -0.000067  -0.000027  -0.000051   0.000000
    17  H    0.000000  -0.000003   0.000000  -0.000002  -0.000064   0.000000
    18  N    0.000000  -0.000001  -0.000006   0.000001   0.000005   0.000000
    19  H    0.000000   0.000000   0.000000   0.000000   0.000001   0.000000
    20  C    0.000000  -0.000010   0.000031  -0.000001  -0.000025   0.000000
    21  H    0.000000   0.000000  -0.000001   0.000000   0.000001   0.000000
    22  H    0.000000   0.000000  -0.000040   0.000000   0.000246   0.000000
    23  H   -0.029758  -0.029504  -0.002427  -0.002218   0.005240  -0.029305
    24  C    0.380277   0.352456  -0.036528  -0.038204  -0.052521   0.382334
    25  H    0.547990  -0.034691  -0.005452   0.005102   0.001091  -0.028911
    26  C   -0.034691   5.162383   0.362002   0.369122   0.243736  -0.034600
    27  H   -0.005452   0.362002   0.621208  -0.049952  -0.051210   0.005106
    28  H    0.005102   0.369122  -0.049952   0.607285  -0.052935  -0.005088
    29  S    0.001091   0.243736  -0.051210  -0.052935  15.908585   0.000681
    30  H   -0.028911  -0.034600   0.005106  -0.005088   0.000681   0.538640
    31  H    0.000000   0.000000   0.000000  -0.000001   0.000002   0.000000
    32  C    0.000000   0.000017   0.000000  -0.000063   0.000168   0.000000
    33  H    0.000000   0.000000   0.000000   0.000001  -0.000005   0.000000
    34  C    0.000000  -0.000638  -0.000051   0.001654  -0.005935  -0.000005
    35  H   -0.000001  -0.000012   0.000061  -0.000209   0.010368   0.000025
    36  H    0.000000  -0.000119  -0.000024   0.000467  -0.000626  -0.000001
    37  C    0.000000  -0.000034  -0.000001   0.000055  -0.000017   0.000000
    38  N    0.000000   0.000046  -0.000010   0.000077  -0.011737   0.000000
    39  C    0.000000   0.000001   0.000000   0.000001  -0.000586   0.000000
    40  H    0.000000   0.000000   0.000000   0.000000  -0.000040   0.000000
    41  N    0.000000   0.000000   0.000000   0.000000   0.000010   0.000000
    42  H    0.000000   0.000000   0.000000   0.000000   0.000001   0.000000
    43  C    0.000000  -0.000001   0.000000   0.000001  -0.000174   0.000000
    44  H    0.000000   0.000000   0.000000   0.000000   0.000000   0.000000
    45  H    0.000000   0.000002   0.000000   0.000014  -0.000001   0.000000
    46  Zn   0.001247   0.004280   0.000981   0.001375   0.295967   0.000959
             31         32         33         34         35         36
     1  H    0.000000   0.000000   0.000000   0.000000   0.000000   0.000000
     2  C    0.000000   0.000000   0.000000   0.000000   0.000000   0.000000
     3  H    0.000000   0.000000   0.000000   0.000000   0.000000   0.000000
     4  H    0.000000   0.000000   0.000000   0.000000   0.000000   0.000000
     5  C    0.000000   0.000000   0.000000   0.000000   0.000000   0.000000
     6  O    0.000000   0.000000   0.000000   0.000001   0.000000  -0.000001
     7  N    0.000000   0.000000   0.000000   0.000000   0.000000   0.000000
     8  H    0.000000   0.000000   0.000000   0.000000   0.000000   0.000000
     9  C    0.000000   0.000000   0.000000   0.000000   0.000001   0.000000
    10  H    0.000000   0.000000   0.000000   0.000002  -0.000001   0.000000
    11  C    0.000000   0.000000   0.000000   0.000000   0.000000   0.000000
    12  H    0.000000   0.000000   0.000000   0.000000   0.000000   0.000000
    13  H    0.000000   0.000000   0.000000   0.000000   0.000000   0.000000
    14  C    0.000000   0.000000   0.000000  -0.000002   0.000001  -0.000008
    15  N    0.000000   0.000000   0.000000  -0.000109  -0.000063   0.000037
    16  C    0.000000   0.000003   0.000000  -0.000191  -0.000006   0.000569
    17  H    0.000000  -0.000013   0.000000   0.000000  -0.000001   0.000412
    18  N    0.000000   0.000000   0.000000   0.000002   0.000000   0.000004
    19  H    0.000000   0.000000   0.000000   0.000000   0.000000   0.000000
    20  C    0.000000   0.000000   0.000000   0.000000   0.000000  -0.000003
    21  H    0.000000   0.000000   0.000000   0.000000   0.000000   0.000000
    22  H    0.000000   0.000000   0.000000   0.000000   0.000000   0.000000
    23  H    0.000000   0.000000   0.000000   0.000000  -0.000001   0.000000
    24  C    0.000000   0.000000   0.000000   0.000003  -0.000044   0.000000
    25  H    0.000000   0.000000   0.000000   0.000000  -0.000001   0.000000
    26  C    0.000000   0.000017   0.000000  -0.000638  -0.000012  -0.000119
    27  H    0.000000   0.000000   0.000000  -0.000051   0.000061  -0.000024
    28  H   -0.000001  -0.000063   0.000001   0.001654  -0.000209   0.000467
    29  S    0.000002   0.000168  -0.000005  -0.005935   0.010368  -0.000626
    30  H    0.000000   0.000000   0.000000  -0.000005   0.000025  -0.000001
    31  H    0.545277   0.379220  -0.032925  -0.031782  -0.005069   0.004916
    32  C    0.379220   5.070901   0.375812   0.353149  -0.026676  -0.034737
    33  H   -0.032925   0.375812   0.566536  -0.032916   0.004326  -0.005168
    34  C   -0.031782   0.353149  -0.032916   5.112553   0.365233   0.362444
    35  H   -0.005069  -0.026676   0.004326   0.365233   0.504450  -0.040204
    36  H    0.004916  -0.034737  -0.005168   0.362444  -0.040204   0.593207
    37  C   -0.005214  -0.035316  -0.005038   0.391192  -0.033711  -0.037556
    38  N    0.000005   0.003053   0.000000  -0.057245  -0.002865  -0.001997
    39  C   -0.000018  -0.000109  -0.000013   0.008779   0.000169  -0.000010
    40  H    0.000000   0.000002   0.000000  -0.000127   0.000003   0.000002
    41  N   -0.000017   0.000015  -0.000011   0.005332  -0.000039  -0.000037
    42  H    0.000002   0.000000   0.000001  -0.000100   0.000003   0.000003
    43  C    0.002847  -0.004314   0.002809  -0.079075   0.000944   0.001728
    44  H    0.000813   0.002765   0.000865  -0.003364   0.000042   0.000034
    45  H   -0.026330   0.378469  -0.028010  -0.026828  -0.002784  -0.002961
    46  Zn   0.000450  -0.001072   0.000061  -0.002216   0.005084   0.005273
             37         38         39         40         41         42
     1  H    0.000000  -0.000004  -0.000071   0.000453   0.000001   0.000000
     2  C    0.000000  -0.000016  -0.000034   0.000033  -0.000001   0.000000
     3  H    0.000000   0.000000   0.000000   0.000005   0.000000   0.000000
     4  H    0.000000  -0.000001  -0.000026   0.000128   0.000000   0.000000
     5  C   -0.000004   0.000131   0.000070  -0.000391   0.000002   0.000000
     6  O    0.000047  -0.008714  -0.001557   0.010254   0.000121   0.000001
     7  N    0.000000  -0.000006   0.000006   0.000048   0.000000   0.000000
     8  H    0.000000   0.000000   0.000000  -0.000001   0.000000   0.000000
     9  C   -0.000001  -0.000008   0.000000  -0.000003   0.000000   0.000000
    10  H   -0.000005   0.000088   0.000006   0.000003   0.000000   0.000000
    11  C    0.000000  -0.000002   0.000000   0.000000   0.000000   0.000000
    12  H    0.000000   0.000000   0.000000   0.000000   0.000000   0.000000
    13  H    0.000000   0.000000   0.000000   0.000000   0.000000   0.000000
    14  C   -0.000007  -0.000050  -0.000020  -0.000004   0.000000   0.000000
    15  N   -0.000258  -0.008198  -0.000222  -0.000049   0.000000   0.000000
    16  C   -0.000284   0.001311   0.000134  -0.000017  -0.000001   0.000000
    17  H    0.001368   0.002692  -0.000152  -0.000014  -0.000036  -0.000001
    18  N   -0.000001   0.000047   0.000001   0.000000   0.000000   0.000000
    19  H    0.000000   0.000001   0.000000   0.000000   0.000000   0.000000
    20  C    0.000000  -0.000003   0.000001   0.000000   0.000000   0.000000
    21  H    0.000000   0.000000   0.000000   0.000000   0.000000   0.000000
    22  H    0.000000   0.000000   0.000000   0.000000   0.000000   0.000000
    23  H    0.000000   0.000000   0.000000   0.000000   0.000000   0.000000
    24  C    0.000000  -0.000001   0.000000   0.000000   0.000000   0.000000
    25  H    0.000000   0.000000   0.000000   0.000000   0.000000   0.000000
    26  C   -0.000034   0.000046   0.000001   0.000000   0.000000   0.000000
    27  H   -0.000001  -0.000010   0.000000   0.000000   0.000000   0.000000
    28  H    0.000055   0.000077   0.000001   0.000000   0.000000   0.000000
    29  S   -0.000017  -0.011737  -0.000586  -0.000040   0.000010   0.000001
    30  H    0.000000   0.000000   0.000000   0.000000   0.000000   0.000000
    31  H   -0.005214   0.000005  -0.000018   0.000000  -0.000017   0.000002
    32  C   -0.035316   0.003053  -0.000109   0.000002   0.000015   0.000000
    33  H   -0.005038   0.000000  -0.000013   0.000000  -0.000011   0.000001
    34  C    0.391192  -0.057245   0.008779  -0.000127   0.005332  -0.000100
    35  H   -0.033711  -0.002865   0.000169   0.000003  -0.000039   0.000003
    36  H   -0.037556  -0.001997  -0.000010   0.000002  -0.000037   0.000003
    37  C    4.700286   0.339163  -0.100176   0.003014  -0.015255   0.004928
    38  N    0.339163   6.888002   0.426242  -0.037107  -0.071458   0.004748
    39  C   -0.100176   0.426242   4.789534   0.374409   0.378855  -0.028134
    40  H    0.003014  -0.037107   0.374409   0.481354  -0.044031  -0.000610
    41  N   -0.015255  -0.071458   0.378855  -0.044031   6.727213   0.317159
    42  H    0.004928   0.004748  -0.028134  -0.000610   0.317159   0.356882
    43  C    0.552802  -0.044572  -0.100926   0.004144   0.300015  -0.023116
    44  H   -0.029076   0.004533   0.004860  -0.000064  -0.044541  -0.001490
    45  H    0.003774  -0.000073   0.000003   0.000000  -0.000002   0.000000
    46  Zn  -0.030101   0.181459  -0.020786  -0.001138   0.001003   0.000207
             43         44         45         46
     1  H    0.000000   0.000000   0.000000   0.000611
     2  C    0.000000   0.000000   0.000000  -0.003110
     3  H    0.000000   0.000000   0.000000   0.000330
     4  H    0.000000   0.000000   0.000000   0.000348
     5  C    0.000000   0.000000   0.000000  -0.021041
     6  O   -0.000010   0.000000   0.000000   0.150310
     7  N    0.000000   0.000000   0.000000   0.005380
     8  H    0.000000   0.000000   0.000000  -0.000815
     9  C    0.000000   0.000000   0.000000  -0.013971
    10  H    0.000000   0.000000   0.000000   0.024659
    11  C    0.000000   0.000000   0.000000  -0.007500
    12  H    0.000000   0.000000   0.000000  -0.000262
    13  H    0.000000   0.000000   0.000000   0.002140
    14  C    0.000000   0.000000   0.000000  -0.017665
    15  N   -0.000002   0.000000   0.000000   0.169870
    16  C   -0.000027   0.000000   0.000000  -0.025880
    17  H    0.000101   0.000000   0.000000  -0.003310
    18  N    0.000000   0.000000   0.000000   0.002104
    19  H    0.000000   0.000000   0.000000   0.000184
    20  C    0.000000   0.000000   0.000000   0.002897
    21  H    0.000000   0.000000   0.000000   0.000039
    22  H    0.000000   0.000000   0.000000   0.001364
    23  H    0.000000   0.000000   0.000000  -0.000352
    24  C    0.000000   0.000000   0.000000  -0.003501
    25  H    0.000000   0.000000   0.000000   0.001247
    26  C   -0.000001   0.000000   0.000002   0.004280
    27  H    0.000000   0.000000   0.000000   0.000981
    28  H    0.000001   0.000000   0.000014   0.001375
    29  S   -0.000174   0.000000  -0.000001   0.295967
    30  H    0.000000   0.000000   0.000000   0.000959
    31  H    0.002847   0.000813  -0.026330   0.000450
    32  C   -0.004314   0.002765   0.378469  -0.001072
    33  H    0.002809   0.000865  -0.028010   0.000061
    34  C   -0.079075  -0.003364  -0.026828  -0.002216
    35  H    0.000944   0.000042  -0.002784   0.005084
    36  H    0.001728   0.000034  -0.002961   0.005273
    37  C    0.552802  -0.029076   0.003774  -0.030101
    38  N   -0.044572   0.004533  -0.000073   0.181459
    39  C   -0.100926   0.004860   0.000003  -0.020786
    40  H    0.004144  -0.000064   0.000000  -0.001138
    41  N    0.300015  -0.044541  -0.000002   0.001003
    42  H   -0.023116  -0.001490   0.000000   0.000207
    43  C    5.019981   0.374357   0.000064   0.005042
    44  H    0.374357   0.493041  -0.000060   0.000081
    45  H    0.000064  -0.000060   0.530963  -0.000074
    46  Zn   0.005042   0.000081  -0.000074  28.564865
 Mulliken atomic charges:
              1
     1  H    0.199709
     2  C   -0.541170
     3  H    0.176726
     4  H    0.218174
     5  C    0.641588
     6  O   -0.569169
     7  N   -0.557344
     8  H    0.355287
     9  C   -0.200257
    10  H    0.238735
    11  C   -0.349248
    12  H    0.167554
    13  H    0.203316
    14  C    0.288585
    15  N   -0.585554
    16  C    0.262360
    17  H    0.210502
    18  N   -0.546350
    19  H    0.373716
    20  C   -0.012362
    21  H    0.199437
    22  H    0.192404
    23  H    0.148967
    24  C   -0.438077
    25  H    0.163100
    26  C   -0.393476
    27  H    0.152794
    28  H    0.163637
    29  S   -0.274812
    30  H    0.170167
    31  H    0.167824
    32  C   -0.461275
    33  H    0.153675
    34  C   -0.359761
    35  H    0.220978
    36  H    0.154355
    37  C    0.295424
    38  N   -0.607533
    39  C    0.269768
    40  H    0.209742
    41  N   -0.554295
    42  H    0.369516
    43  C   -0.012620
    44  H    0.197203
    45  H    0.173833
    46  Zn   0.724224
 Sum of Mulliken charges=   1.00000
 Atomic charges with hydrogens summed into heavy atoms:
              1
     1  H    0.000000
     2  C    0.053439
     3  H    0.000000
     4  H    0.000000
     5  C    0.641588
     6  O   -0.569169
     7  N   -0.202057
     8  H    0.000000
     9  C    0.230882
    10  H    0.000000
    11  C    0.021622
    12  H    0.000000
    13  H    0.000000
    14  C    0.288585
    15  N   -0.585554
    16  C    0.472863
    17  H    0.000000
    18  N   -0.172634
    19  H    0.000000
    20  C    0.187075
    21  H    0.000000
    22  H    0.000000
    23  H    0.000000
    24  C    0.044158
    25  H    0.000000
    26  C   -0.077045
    27  H    0.000000
    28  H    0.000000
    29  S   -0.274812
    30  H    0.000000
    31  H    0.000000
    32  C    0.034057
    33  H    0.000000
    34  C    0.015572
    35  H    0.000000
    36  H    0.000000
    37  C    0.295424
    38  N   -0.607533
    39  C    0.479510
    40  H    0.000000
    41  N   -0.184779
    42  H    0.000000
    43  C    0.184584
    44  H    0.000000
    45  H    0.000000
    46  Zn   0.724224
 Sum of Mulliken charges=   1.00000
 Electronic spatial extent (au):  <R**2>=  7825.9637
 Charge=     1.0000 electrons
 Dipole moment (field-independent basis, Debye):
    X=     3.6563    Y=    -8.6965    Z=     6.4922  Tot=    11.4520
 Quadrupole moment (field-independent basis, Debye-Ang):
   XX=   -78.6625   YY=  -111.9865   ZZ=  -118.0433
   XY=     8.3466   XZ=     0.7734   YZ=    10.2684
 Traceless Quadrupole moment (field-independent basis, Debye-Ang):
   XX=    24.2349   YY=    -9.0891   ZZ=   -15.1459
   XY=     8.3466   XZ=     0.7734   YZ=    10.2684
 Octapole moment (field-independent basis, Debye-Ang**2):
  XXX=    34.5261  YYY=  -104.8939  ZZZ=   122.3839  XYY=   -33.3488
  XXY=   -85.2375  XXZ=    -8.2683  XZZ=    59.1712  YZZ=   -49.5444
  YYZ=   -30.7461  XYZ=    -1.8161
 Hexadecapole moment (field-independent basis, Debye-Ang**3):
 XXXX= -4021.9889 YYYY= -2837.4761 ZZZZ= -1377.9993 XXXY=   140.6044
 XXXZ=   -44.8242 YYYX=   157.8456 YYYZ=   135.5716 ZZZX=   161.9992
 ZZZY=   -31.3859 XXYY= -1078.6757 XXZZ= -1032.9573 YYZZ=  -848.3820
 XXYZ=   106.4148 YYXZ=    -3.0811 ZZXY=   -33.2700
 N-N= 2.684783230070D+03 E-N=-1.263522618187D+04  KE= 3.061234163870D+03
 1\1\GINC-C5A-S2\FOpt\RB3LYP\6-31G(d)\C14H24N5O1S1Zn1(1+)\ROOT\03-Nov-2
 015\0\\#N B3LYP/6-31G* Geom=PrintInputOrient Integral=(Grid=UltraFine)
  Opt SCF=XQC\\CLR\\1,1\H,13.9425782483,56.334393165,33.8115749996\C,13
 .7907701671,56.6735052781,32.7823217986\H,13.2858008543,57.6425128841,
 32.7983010953\H,14.7782125267,56.7978901454,32.3263685214\C,13.0359831
 397,55.613694349,32.0153692205\O,13.5080518127,54.4551957145,31.946160
 2846\N,11.8852672604,55.9809047041,31.4320065408\H,11.5982015295,56.94
 35889231,31.5511803731\C,11.0833860607,55.1412133798,30.5407010422\H,1
 1.7328244515,54.3766755962,30.1068788947\C,9.8410860862,54.503686175,3
 1.1896886768\H,9.1132379136,55.2828412947,31.4446646309\H,9.3687355001
 ,53.8931566978,30.4077367107\C,10.0601256123,53.6638067337,32.41787959
 63\N,11.1182200948,52.7795425675,32.5999929963\C,10.9202150607,52.1749
 480798,33.763989977\H,11.5720953121,51.4384638611,34.210003756\N,9.787
 1828233,52.6241778115,34.3403746365\H,9.4115635543,52.3161835138,35.22
 75228035\C,9.2309054416,53.571335197,33.5066036831\H,8.3078267201,54.0
 762765004,33.7463626719\H,10.7516677053,55.769857247,29.7089892406\H,9
 .9700544547,50.070816924,27.6461542727\C,10.9015073201,50.6436372165,2
 7.7346485398\H,10.8175670381,51.5356579946,27.105566302\C,11.157864993
 6,51.0215747801,29.1919446567\H,10.3252521852,51.6217640433,29.5765630
 46\H,11.2198755091,50.1170196131,29.8068680729\S,12.7477837254,51.9762
 004575,29.3345857848\H,11.7182524565,50.0308626434,27.3402824559\H,15.
 1273651884,47.6873579713,31.7970112561\C,14.1311638932,47.8056418163,3
 2.2366873746\H,14.1832900563,47.5089749117,33.2904710562\C,13.62269387
 65,49.2420660771,32.0776130692\H,13.5473261883,49.5004635336,31.012926
 6701\H,12.6007603336,49.3154811442,32.4788261358\C,14.4894871573,50.26
 80580729,32.7459176928\N,14.2104159515,51.6314271183,32.6753425522\C,1
 5.1766848005,52.2641219199,33.3309007491\H,15.2621250347,53.3349312012
 ,33.4317166461\N,16.0580528429,51.3752079367,33.8272118153\H,16.893777
 3299,51.6013185346,34.3493280245\C,15.6423748174,50.1060371505,33.4687
 005452\H,16.1961843491,49.223740904,33.7464430852\H,13.4602308411,47.1
 082685624,31.7274497884\Zn,12.835971781,52.5525196545,31.4971682578\\V
 ersion=AM64L-G03RevE.01\State=1-A\HF=-3074.1998547\RMSD=5.854e-09\RMSF
 =1.761e-06\Thermal=0.\Dipole=-0.6056273,1.7735143,4.0972942\PG=C01 [X(
 C14H24N5O1S1Zn1)]\\@


 THERE'S NOTHING WRONG WITH FOLLOWING A TRAIN OF THOUGHT...
 AS LONG AS IT ULTIMATELY PULLS INTO THE STATION.

 File lengths (MBytes):  RWF=    120 Int=      0 D2E=      0 Chk=     17 Scr=      1
 Normal termination of Gaussian 03 at Tue Nov  3 00:28:50 2015.
