 Entering Gaussian System, Link 0=g03
 Initial command:
 /apps/gaussian/g03/amd64/g03/l1.exe /scratch/lfs/pengfei/pymsmt/testcases2/1E67/fc/Gau-38691.inp -scrdir=/scratch/lfs/pengfei/pymsmt/testcases2/1E67/fc/
 Entering Link 1 = /apps/gaussian/g03/amd64/g03/l1.exe PID=     38692.
  
 Copyright (c) 1988,1990,1992,1993,1995,1998,2003,2004,2007, Gaussian, Inc.
                  All Rights Reserved.
  
 This is the Gaussian(R) 03 program.  It is based on the
 the Gaussian(R) 98 system (copyright 1998, Gaussian, Inc.),
 the Gaussian(R) 94 system (copyright 1995, Gaussian, Inc.),
 the Gaussian 92(TM) system (copyright 1992, Gaussian, Inc.),
 the Gaussian 90(TM) system (copyright 1990, Gaussian, Inc.),
 the Gaussian 88(TM) system (copyright 1988, Gaussian, Inc.),
 the Gaussian 86(TM) system (copyright 1986, Carnegie Mellon
 University), and the Gaussian 82(TM) system (copyright 1983,
 Carnegie Mellon University). Gaussian is a federally registered
 trademark of Gaussian, Inc.
  
 This software contains proprietary and confidential information,
 including trade secrets, belonging to Gaussian, Inc.
  
 This software is provided under written license and may be
 used, copied, transmitted, or stored only in accord with that
 written license.
  
 The following legend is applicable only to US Government
 contracts under FAR:
  
                    RESTRICTED RIGHTS LEGEND
  
 Use, reproduction and disclosure by the US Government is
 subject to restrictions as set forth in subparagraphs (a)
 and (c) of the Commercial Computer Software - Restricted
 Rights clause in FAR 52.227-19.
  
 Gaussian, Inc.
 340 Quinnipiac St., Bldg. 40, Wallingford CT 06492
  
  
 ---------------------------------------------------------------
 Warning -- This program may not be used in any manner that
 competes with the business of Gaussian, Inc. or will provide
 assistance to any competitor of Gaussian, Inc.  The licensee
 of this program is prohibited from giving any competitor of
 Gaussian, Inc. access to this program.  By using this program,
 the user acknowledges that Gaussian, Inc. is engaged in the
 business of creating and licensing software in the field of
 computational chemistry and represents and warrants to the
 licensee that it is not a competitor of Gaussian, Inc. and that
 it will not use this program in any manner prohibited above.
 ---------------------------------------------------------------
  

 Cite this work as:
 Gaussian 03, Revision E.01,
 M. J. Frisch, G. W. Trucks, H. B. Schlegel, G. E. Scuseria, 
 M. A. Robb, J. R. Cheeseman, J. A. Montgomery, Jr., T. Vreven, 
 K. N. Kudin, J. C. Burant, J. M. Millam, S. S. Iyengar, J. Tomasi, 
 V. Barone, B. Mennucci, M. Cossi, G. Scalmani, N. Rega, 
 G. A. Petersson, H. Nakatsuji, M. Hada, M. Ehara, K. Toyota, 
 R. Fukuda, J. Hasegawa, M. Ishida, T. Nakajima, Y. Honda, O. Kitao, 
 H. Nakai, M. Klene, X. Li, J. E. Knox, H. P. Hratchian, J. B. Cross, 
 V. Bakken, C. Adamo, J. Jaramillo, R. Gomperts, R. E. Stratmann, 
 O. Yazyev, A. J. Austin, R. Cammi, C. Pomelli, J. W. Ochterski, 
 P. Y. Ayala, K. Morokuma, G. A. Voth, P. Salvador, J. J. Dannenberg, 
 V. G. Zakrzewski, S. Dapprich, A. D. Daniels, M. C. Strain, 
 O. Farkas, D. K. Malick, A. D. Rabuck, K. Raghavachari, 
 J. B. Foresman, J. V. Ortiz, Q. Cui, A. G. Baboul, S. Clifford, 
 J. Cioslowski, B. B. Stefanov, G. Liu, A. Liashenko, P. Piskorz, 
 I. Komaromi, R. L. Martin, D. J. Fox, T. Keith, M. A. Al-Laham, 
 C. Y. Peng, A. Nanayakkara, M. Challacombe, P. M. W. Gill, 
 B. Johnson, W. Chen, M. W. Wong, C. Gonzalez, and J. A. Pople, 
 Gaussian, Inc., Wallingford CT, 2004.
 
 ******************************************
 Gaussian 03:  AM64L-G03RevE.01 11-Sep-2007
                 3-Nov-2015 
 ******************************************
 %Chk=1E67_small_opt.chk
 %Mem=6000MB
 %NProcShared=12
 Will use up to   12 processors via shared memory.
 ----------------------------------------------------------------------
 #N B3LYP/6-31G* Freq=NoRaman Geom=AllCheckpoint Guess=Read Integral=(G
 rid=UltraFine) SCF=XQC IOp(7/33=1)
 ----------------------------------------------------------------------
 1/10=4,29=7,30=1,38=1/1,3;
 2/40=1/2;
 3/5=1,6=6,7=1,11=2,16=1,25=1,30=1,74=-5,75=5/1,2,3;
 4/5=1/1;
 5/5=2,8=3,13=1,38=6/2,8;
 8/6=4,10=90,11=11/1;
 11/6=1,8=1,9=11,15=111,16=1/1,2,10;
 10/6=1/2;
 6/7=2,8=2,9=2,10=2,18=1,28=1/1;
 7/8=1,10=1,25=1,33=1/1,2,3,16;
 1/10=4,30=1/3;
 99//99;
 ---
 CLR
 ---
 Redundant internal coordinates taken from checkpoint file:
 1E67_small_opt.chk
 Charge =  1 Multiplicity = 1
 H,0,13.9425782483,56.334393165,33.8115749996
 C,0,13.7907701671,56.6735052781,32.7823217986
 H,0,13.2858008543,57.6425128841,32.7983010953
 H,0,14.7782125267,56.7978901454,32.3263685214
 C,0,13.0359831397,55.613694349,32.0153692205
 O,0,13.5080518127,54.4551957145,31.9461602846
 N,0,11.8852672604,55.9809047041,31.4320065408
 H,0,11.5982015295,56.9435889231,31.5511803731
 C,0,11.0833860607,55.1412133798,30.5407010422
 H,0,11.7328244515,54.3766755962,30.1068788947
 C,0,9.8410860862,54.503686175,31.1896886768
 H,0,9.1132379136,55.2828412947,31.4446646309
 H,0,9.3687355001,53.8931566978,30.4077367107
 C,0,10.0601256123,53.6638067337,32.4178795963
 N,0,11.1182200948,52.7795425675,32.5999929963
 C,0,10.9202150607,52.1749480798,33.763989977
 H,0,11.5720953121,51.4384638611,34.210003756
 N,0,9.7871828233,52.6241778115,34.3403746365
 H,0,9.4115635543,52.3161835138,35.2275228035
 C,0,9.2309054416,53.571335197,33.5066036831
 H,0,8.3078267201,54.0762765004,33.7463626719
 H,0,10.7516677053,55.769857247,29.7089892406
 H,0,9.9700544547,50.070816924,27.6461542727
 C,0,10.9015073201,50.6436372165,27.7346485398
 H,0,10.8175670381,51.5356579946,27.105566302
 C,0,11.1578649936,51.0215747801,29.1919446567
 H,0,10.3252521852,51.6217640433,29.576563046
 H,0,11.2198755091,50.1170196131,29.8068680729
 S,0,12.7477837254,51.9762004575,29.3345857848
 H,0,11.7182524565,50.0308626434,27.3402824559
 H,0,15.1273651884,47.6873579713,31.7970112561
 C,0,14.1311638932,47.8056418163,32.2366873746
 H,0,14.1832900563,47.5089749117,33.2904710562
 C,0,13.6226938765,49.2420660771,32.0776130692
 H,0,13.5473261883,49.5004635336,31.0129266701
 H,0,12.6007603336,49.3154811442,32.4788261358
 C,0,14.4894871573,50.2680580729,32.7459176928
 N,0,14.2104159515,51.6314271183,32.6753425522
 C,0,15.1766848005,52.2641219199,33.3309007491
 H,0,15.2621250347,53.3349312012,33.4317166461
 N,0,16.0580528429,51.3752079367,33.8272118153
 H,0,16.8937773299,51.6013185346,34.3493280245
 C,0,15.6423748174,50.1060371505,33.4687005452
 H,0,16.1961843491,49.223740904,33.7464430852
 H,0,13.4602308411,47.1082685624,31.7274497884
 Zn,0,12.835971781,52.5525196545,31.4971682578
 Recover connectivity data from disk.

 GradGradGradGradGradGradGradGradGradGradGradGradGradGradGradGradGradGrad
 Berny optimization.
 Initialization pass.
                           ----------------------------
                           !    Initial Parameters    !
                           ! (Angstroms and Degrees)  !
 --------------------------                            --------------------------
 ! Name  Definition              Value          Derivative Info.                !
 --------------------------------------------------------------------------------
 ! R1    R(1,2)                  1.0943         calculate D2E/DX2 analytically  !
 ! R2    R(2,3)                  1.0928         calculate D2E/DX2 analytically  !
 ! R3    R(2,4)                  1.0947         calculate D2E/DX2 analytically  !
 ! R4    R(2,5)                  1.5103         calculate D2E/DX2 analytically  !
 ! R5    R(5,6)                  1.2529         calculate D2E/DX2 analytically  !
 ! R6    R(5,7)                  1.3414         calculate D2E/DX2 analytically  !
 ! R7    R(6,46)                 2.0672         calculate D2E/DX2 analytically  !
 ! R8    R(7,8)                  1.0116         calculate D2E/DX2 analytically  !
 ! R9    R(7,9)                  1.4637         calculate D2E/DX2 analytically  !
 ! R10   R(9,10)                 1.0929         calculate D2E/DX2 analytically  !
 ! R11   R(9,11)                 1.5398         calculate D2E/DX2 analytically  !
 ! R12   R(9,22)                 1.0941         calculate D2E/DX2 analytically  !
 ! R13   R(11,12)                1.0963         calculate D2E/DX2 analytically  !
 ! R14   R(11,13)                1.0988         calculate D2E/DX2 analytically  !
 ! R15   R(11,14)                1.5039         calculate D2E/DX2 analytically  !
 ! R16   R(14,15)                1.3909         calculate D2E/DX2 analytically  !
 ! R17   R(14,20)                1.3717         calculate D2E/DX2 analytically  !
 ! R18   R(15,16)                1.3265         calculate D2E/DX2 analytically  !
 ! R19   R(15,46)                2.0539         calculate D2E/DX2 analytically  !
 ! R20   R(16,17)                1.0799         calculate D2E/DX2 analytically  !
 ! R21   R(16,18)                1.3483         calculate D2E/DX2 analytically  !
 ! R22   R(18,19)                1.0114         calculate D2E/DX2 analytically  !
 ! R23   R(18,20)                1.379          calculate D2E/DX2 analytically  !
 ! R24   R(20,21)                1.0791         calculate D2E/DX2 analytically  !
 ! R25   R(23,24)                1.0971         calculate D2E/DX2 analytically  !
 ! R26   R(24,25)                1.0948         calculate D2E/DX2 analytically  !
 ! R27   R(24,26)                1.5272         calculate D2E/DX2 analytically  !
 ! R28   R(24,30)                1.0946         calculate D2E/DX2 analytically  !
 ! R29   R(26,27)                1.0961         calculate D2E/DX2 analytically  !
 ! R30   R(26,28)                1.0955         calculate D2E/DX2 analytically  !
 ! R31   R(26,29)                1.86           calculate D2E/DX2 analytically  !
 ! R32   R(29,46)                2.2398         calculate D2E/DX2 analytically  !
 ! R33   R(31,32)                1.0953         calculate D2E/DX2 analytically  !
 ! R34   R(32,33)                1.096          calculate D2E/DX2 analytically  !
 ! R35   R(32,34)                1.532          calculate D2E/DX2 analytically  !
 ! R36   R(32,45)                1.0935         calculate D2E/DX2 analytically  !
 ! R37   R(34,35)                1.0982         calculate D2E/DX2 analytically  !
 ! R38   R(34,36)                1.1003         calculate D2E/DX2 analytically  !
 ! R39   R(34,37)                1.5002         calculate D2E/DX2 analytically  !
 ! R40   R(37,38)                1.3934         calculate D2E/DX2 analytically  !
 ! R41   R(37,43)                1.3703         calculate D2E/DX2 analytically  !
 ! R42   R(38,39)                1.3281         calculate D2E/DX2 analytically  !
 ! R43   R(38,46)                2.0312         calculate D2E/DX2 analytically  !
 ! R44   R(39,40)                1.0789         calculate D2E/DX2 analytically  !
 ! R45   R(39,41)                1.3466         calculate D2E/DX2 analytically  !
 ! R46   R(41,42)                1.011          calculate D2E/DX2 analytically  !
 ! R47   R(41,43)                1.3828         calculate D2E/DX2 analytically  !
 ! R48   R(43,44)                1.0781         calculate D2E/DX2 analytically  !
 ! A1    A(1,2,3)              108.9744         calculate D2E/DX2 analytically  !
 ! A2    A(1,2,4)              107.5679         calculate D2E/DX2 analytically  !
 ! A3    A(1,2,5)              109.2388         calculate D2E/DX2 analytically  !
 ! A4    A(3,2,4)              108.7926         calculate D2E/DX2 analytically  !
 ! A5    A(3,2,5)              113.4977         calculate D2E/DX2 analytically  !
 ! A6    A(4,2,5)              108.6027         calculate D2E/DX2 analytically  !
 ! A7    A(2,5,6)              119.2479         calculate D2E/DX2 analytically  !
 ! A8    A(2,5,7)              117.2233         calculate D2E/DX2 analytically  !
 ! A9    A(6,5,7)              123.5271         calculate D2E/DX2 analytically  !
 ! A10   A(5,6,46)             137.7783         calculate D2E/DX2 analytically  !
 ! A11   A(5,7,8)              116.918          calculate D2E/DX2 analytically  !
 ! A12   A(5,7,9)              125.2917         calculate D2E/DX2 analytically  !
 ! A13   A(8,7,9)              117.5286         calculate D2E/DX2 analytically  !
 ! A14   A(7,9,10)             108.5099         calculate D2E/DX2 analytically  !
 ! A15   A(7,9,11)             115.0153         calculate D2E/DX2 analytically  !
 ! A16   A(7,9,22)             107.4207         calculate D2E/DX2 analytically  !
 ! A17   A(10,9,11)            110.9213         calculate D2E/DX2 analytically  !
 ! A18   A(10,9,22)            106.2818         calculate D2E/DX2 analytically  !
 ! A19   A(11,9,22)            108.282          calculate D2E/DX2 analytically  !
 ! A20   A(9,11,12)            109.8412         calculate D2E/DX2 analytically  !
 ! A21   A(9,11,13)            106.0778         calculate D2E/DX2 analytically  !
 ! A22   A(9,11,14)            117.2527         calculate D2E/DX2 analytically  !
 ! A23   A(12,11,13)           105.9628         calculate D2E/DX2 analytically  !
 ! A24   A(12,11,14)           107.6777         calculate D2E/DX2 analytically  !
 ! A25   A(13,11,14)           109.4803         calculate D2E/DX2 analytically  !
 ! A26   A(11,14,15)           124.9422         calculate D2E/DX2 analytically  !
 ! A27   A(11,14,20)           126.7121         calculate D2E/DX2 analytically  !
 ! A28   A(15,14,20)           108.246          calculate D2E/DX2 analytically  !
 ! A29   A(14,15,16)           106.9236         calculate D2E/DX2 analytically  !
 ! A30   A(14,15,46)           129.5082         calculate D2E/DX2 analytically  !
 ! A31   A(16,15,46)           123.0673         calculate D2E/DX2 analytically  !
 ! A32   A(15,16,17)           125.6704         calculate D2E/DX2 analytically  !
 ! A33   A(15,16,18)           110.4083         calculate D2E/DX2 analytically  !
 ! A34   A(17,16,18)           123.9131         calculate D2E/DX2 analytically  !
 ! A35   A(16,18,19)           125.8458         calculate D2E/DX2 analytically  !
 ! A36   A(16,18,20)           108.021          calculate D2E/DX2 analytically  !
 ! A37   A(19,18,20)           126.1328         calculate D2E/DX2 analytically  !
 ! A38   A(14,20,18)           106.3995         calculate D2E/DX2 analytically  !
 ! A39   A(14,20,21)           131.4461         calculate D2E/DX2 analytically  !
 ! A40   A(18,20,21)           122.1472         calculate D2E/DX2 analytically  !
 ! A41   A(23,24,25)           108.3            calculate D2E/DX2 analytically  !
 ! A42   A(23,24,26)           110.4085         calculate D2E/DX2 analytically  !
 ! A43   A(23,24,30)           108.1896         calculate D2E/DX2 analytically  !
 ! A44   A(25,24,26)           111.0734         calculate D2E/DX2 analytically  !
 ! A45   A(25,24,30)           107.8384         calculate D2E/DX2 analytically  !
 ! A46   A(26,24,30)           110.9218         calculate D2E/DX2 analytically  !
 ! A47   A(24,26,27)           110.0502         calculate D2E/DX2 analytically  !
 ! A48   A(24,26,28)           109.9246         calculate D2E/DX2 analytically  !
 ! A49   A(24,26,29)           110.1017         calculate D2E/DX2 analytically  !
 ! A50   A(27,26,28)           107.3468         calculate D2E/DX2 analytically  !
 ! A51   A(27,26,29)           109.961          calculate D2E/DX2 analytically  !
 ! A52   A(28,26,29)           109.4111         calculate D2E/DX2 analytically  !
 ! A53   A(26,29,46)           103.8727         calculate D2E/DX2 analytically  !
 ! A54   A(31,32,33)           108.2684         calculate D2E/DX2 analytically  !
 ! A55   A(31,32,34)           111.1879         calculate D2E/DX2 analytically  !
 ! A56   A(31,32,45)           107.5915         calculate D2E/DX2 analytically  !
 ! A57   A(33,32,34)           111.6791         calculate D2E/DX2 analytically  !
 ! A58   A(33,32,45)           107.7166         calculate D2E/DX2 analytically  !
 ! A59   A(34,32,45)           110.2393         calculate D2E/DX2 analytically  !
 ! A60   A(32,34,35)           110.1239         calculate D2E/DX2 analytically  !
 ! A61   A(32,34,36)           109.4474         calculate D2E/DX2 analytically  !
 ! A62   A(32,34,37)           113.7785         calculate D2E/DX2 analytically  !
 ! A63   A(35,34,36)           105.9066         calculate D2E/DX2 analytically  !
 ! A64   A(35,34,37)           108.0967         calculate D2E/DX2 analytically  !
 ! A65   A(36,34,37)           109.1811         calculate D2E/DX2 analytically  !
 ! A66   A(34,37,38)           122.0642         calculate D2E/DX2 analytically  !
 ! A67   A(34,37,43)           129.807          calculate D2E/DX2 analytically  !
 ! A68   A(38,37,43)           108.1132         calculate D2E/DX2 analytically  !
 ! A69   A(37,38,39)           107.1822         calculate D2E/DX2 analytically  !
 ! A70   A(37,38,46)           127.4885         calculate D2E/DX2 analytically  !
 ! A71   A(39,38,46)           124.2374         calculate D2E/DX2 analytically  !
 ! A72   A(38,39,40)           125.209          calculate D2E/DX2 analytically  !
 ! A73   A(38,39,41)           110.1002         calculate D2E/DX2 analytically  !
 ! A74   A(40,39,41)           124.6723         calculate D2E/DX2 analytically  !
 ! A75   A(39,41,42)           125.7139         calculate D2E/DX2 analytically  !
 ! A76   A(39,41,43)           108.2746         calculate D2E/DX2 analytically  !
 ! A77   A(42,41,43)           125.9902         calculate D2E/DX2 analytically  !
 ! A78   A(37,43,41)           106.3281         calculate D2E/DX2 analytically  !
 ! A79   A(37,43,44)           131.6687         calculate D2E/DX2 analytically  !
 ! A80   A(41,43,44)           122.0004         calculate D2E/DX2 analytically  !
 ! A81   A(6,46,15)             93.0695         calculate D2E/DX2 analytically  !
 ! A82   A(6,46,29)            117.3441         calculate D2E/DX2 analytically  !
 ! A83   A(6,46,38)             94.0946         calculate D2E/DX2 analytically  !
 ! A84   A(15,46,29)           120.9272         calculate D2E/DX2 analytically  !
 ! A85   A(15,46,38)           107.7345         calculate D2E/DX2 analytically  !
 ! A86   A(29,46,38)           118.0351         calculate D2E/DX2 analytically  !
 ! D1    D(1,2,5,6)            -57.067          calculate D2E/DX2 analytically  !
 ! D2    D(1,2,5,7)            123.4006         calculate D2E/DX2 analytically  !
 ! D3    D(3,2,5,6)           -178.8867         calculate D2E/DX2 analytically  !
 ! D4    D(3,2,5,7)              1.5808         calculate D2E/DX2 analytically  !
 ! D5    D(4,2,5,6)             59.9838         calculate D2E/DX2 analytically  !
 ! D6    D(4,2,5,7)           -119.5486         calculate D2E/DX2 analytically  !
 ! D7    D(2,5,6,46)           161.7342         calculate D2E/DX2 analytically  !
 ! D8    D(7,5,6,46)           -18.7645         calculate D2E/DX2 analytically  !
 ! D9    D(2,5,7,8)             -0.3867         calculate D2E/DX2 analytically  !
 ! D10   D(2,5,7,9)            173.5688         calculate D2E/DX2 analytically  !
 ! D11   D(6,5,7,8)           -179.8973         calculate D2E/DX2 analytically  !
 ! D12   D(6,5,7,9)             -5.9418         calculate D2E/DX2 analytically  !
 ! D13   D(5,6,46,15)          -43.5141         calculate D2E/DX2 analytically  !
 ! D14   D(5,6,46,29)           83.8703         calculate D2E/DX2 analytically  !
 ! D15   D(5,6,46,38)         -151.5531         calculate D2E/DX2 analytically  !
 ! D16   D(5,7,9,10)           -23.0801         calculate D2E/DX2 analytically  !
 ! D17   D(5,7,9,11)           101.7935         calculate D2E/DX2 analytically  !
 ! D18   D(5,7,9,22)          -137.5943         calculate D2E/DX2 analytically  !
 ! D19   D(8,7,9,10)           150.842          calculate D2E/DX2 analytically  !
 ! D20   D(8,7,9,11)           -84.2844         calculate D2E/DX2 analytically  !
 ! D21   D(8,7,9,22)            36.3278         calculate D2E/DX2 analytically  !
 ! D22   D(7,9,11,12)           67.2855         calculate D2E/DX2 analytically  !
 ! D23   D(7,9,11,13)         -178.6184         calculate D2E/DX2 analytically  !
 ! D24   D(7,9,11,14)          -56.0129         calculate D2E/DX2 analytically  !
 ! D25   D(10,9,11,12)        -169.1108         calculate D2E/DX2 analytically  !
 ! D26   D(10,9,11,13)         -55.0146         calculate D2E/DX2 analytically  !
 ! D27   D(10,9,11,14)          67.5908         calculate D2E/DX2 analytically  !
 ! D28   D(22,9,11,12)         -52.8535         calculate D2E/DX2 analytically  !
 ! D29   D(22,9,11,13)          61.2426         calculate D2E/DX2 analytically  !
 ! D30   D(22,9,11,14)        -176.1519         calculate D2E/DX2 analytically  !
 ! D31   D(9,11,14,15)         -40.077          calculate D2E/DX2 analytically  !
 ! D32   D(9,11,14,20)         143.9853         calculate D2E/DX2 analytically  !
 ! D33   D(12,11,14,15)       -164.4712         calculate D2E/DX2 analytically  !
 ! D34   D(12,11,14,20)         19.5911         calculate D2E/DX2 analytically  !
 ! D35   D(13,11,14,15)         80.7631         calculate D2E/DX2 analytically  !
 ! D36   D(13,11,14,20)        -95.1746         calculate D2E/DX2 analytically  !
 ! D37   D(11,14,15,16)       -176.3806         calculate D2E/DX2 analytically  !
 ! D38   D(11,14,15,46)         11.6866         calculate D2E/DX2 analytically  !
 ! D39   D(20,14,15,16)          0.1913         calculate D2E/DX2 analytically  !
 ! D40   D(20,14,15,46)       -171.7415         calculate D2E/DX2 analytically  !
 ! D41   D(11,14,20,18)        176.1354         calculate D2E/DX2 analytically  !
 ! D42   D(11,14,20,21)         -2.8829         calculate D2E/DX2 analytically  !
 ! D43   D(15,14,20,18)         -0.359          calculate D2E/DX2 analytically  !
 ! D44   D(15,14,20,21)       -179.3773         calculate D2E/DX2 analytically  !
 ! D45   D(14,15,16,17)       -178.9276         calculate D2E/DX2 analytically  !
 ! D46   D(14,15,16,18)          0.06           calculate D2E/DX2 analytically  !
 ! D47   D(46,15,16,17)         -6.3509         calculate D2E/DX2 analytically  !
 ! D48   D(46,15,16,18)        172.6367         calculate D2E/DX2 analytically  !
 ! D49   D(14,15,46,6)          63.5263         calculate D2E/DX2 analytically  !
 ! D50   D(14,15,46,29)        -61.1099         calculate D2E/DX2 analytically  !
 ! D51   D(14,15,46,38)        158.8178         calculate D2E/DX2 analytically  !
 ! D52   D(16,15,46,6)        -107.2549         calculate D2E/DX2 analytically  !
 ! D53   D(16,15,46,29)        128.1089         calculate D2E/DX2 analytically  !
 ! D54   D(16,15,46,38)        -11.9634         calculate D2E/DX2 analytically  !
 ! D55   D(15,16,18,19)        179.5112         calculate D2E/DX2 analytically  !
 ! D56   D(15,16,18,20)         -0.287          calculate D2E/DX2 analytically  !
 ! D57   D(17,16,18,19)         -1.4798         calculate D2E/DX2 analytically  !
 ! D58   D(17,16,18,20)        178.722          calculate D2E/DX2 analytically  !
 ! D59   D(16,18,20,14)          0.3945         calculate D2E/DX2 analytically  !
 ! D60   D(16,18,20,21)        179.5254         calculate D2E/DX2 analytically  !
 ! D61   D(19,18,20,14)       -179.403          calculate D2E/DX2 analytically  !
 ! D62   D(19,18,20,21)         -0.2721         calculate D2E/DX2 analytically  !
 ! D63   D(23,24,26,27)        -59.24           calculate D2E/DX2 analytically  !
 ! D64   D(23,24,26,28)         58.7873         calculate D2E/DX2 analytically  !
 ! D65   D(23,24,26,29)        179.391          calculate D2E/DX2 analytically  !
 ! D66   D(25,24,26,27)         60.9191         calculate D2E/DX2 analytically  !
 ! D67   D(25,24,26,28)        178.9464         calculate D2E/DX2 analytically  !
 ! D68   D(25,24,26,29)        -60.4499         calculate D2E/DX2 analytically  !
 ! D69   D(30,24,26,27)       -179.1619         calculate D2E/DX2 analytically  !
 ! D70   D(30,24,26,28)        -61.1346         calculate D2E/DX2 analytically  !
 ! D71   D(30,24,26,29)         59.4691         calculate D2E/DX2 analytically  !
 ! D72   D(24,26,29,46)        175.7874         calculate D2E/DX2 analytically  !
 ! D73   D(27,26,29,46)         54.3651         calculate D2E/DX2 analytically  !
 ! D74   D(28,26,29,46)        -63.3005         calculate D2E/DX2 analytically  !
 ! D75   D(26,29,46,6)        -139.6109         calculate D2E/DX2 analytically  !
 ! D76   D(26,29,46,15)        -27.2714         calculate D2E/DX2 analytically  !
 ! D77   D(26,29,46,38)        108.8933         calculate D2E/DX2 analytically  !
 ! D78   D(31,32,34,35)         60.9064         calculate D2E/DX2 analytically  !
 ! D79   D(31,32,34,36)        176.942          calculate D2E/DX2 analytically  !
 ! D80   D(31,32,34,37)        -60.6241         calculate D2E/DX2 analytically  !
 ! D81   D(33,32,34,35)       -178.0374         calculate D2E/DX2 analytically  !
 ! D82   D(33,32,34,36)        -62.0018         calculate D2E/DX2 analytically  !
 ! D83   D(33,32,34,37)         60.4321         calculate D2E/DX2 analytically  !
 ! D84   D(45,32,34,35)        -58.3286         calculate D2E/DX2 analytically  !
 ! D85   D(45,32,34,36)         57.707          calculate D2E/DX2 analytically  !
 ! D86   D(45,32,34,37)       -179.8591         calculate D2E/DX2 analytically  !
 ! D87   D(32,34,37,38)        178.0031         calculate D2E/DX2 analytically  !
 ! D88   D(32,34,37,43)         -0.3832         calculate D2E/DX2 analytically  !
 ! D89   D(35,34,37,38)         55.3524         calculate D2E/DX2 analytically  !
 ! D90   D(35,34,37,43)       -123.0339         calculate D2E/DX2 analytically  !
 ! D91   D(36,34,37,38)        -59.4165         calculate D2E/DX2 analytically  !
 ! D92   D(36,34,37,43)        122.1972         calculate D2E/DX2 analytically  !
 ! D93   D(34,37,38,39)       -178.2852         calculate D2E/DX2 analytically  !
 ! D94   D(34,37,38,46)         -9.9484         calculate D2E/DX2 analytically  !
 ! D95   D(43,37,38,39)          0.4105         calculate D2E/DX2 analytically  !
 ! D96   D(43,37,38,46)        168.7474         calculate D2E/DX2 analytically  !
 ! D97   D(34,37,43,41)        178.3162         calculate D2E/DX2 analytically  !
 ! D98   D(34,37,43,44)         -1.0772         calculate D2E/DX2 analytically  !
 ! D99   D(38,37,43,41)         -0.245          calculate D2E/DX2 analytically  !
 ! D100  D(38,37,43,44)       -179.6384         calculate D2E/DX2 analytically  !
 ! D101  D(37,38,39,40)        178.0717         calculate D2E/DX2 analytically  !
 ! D102  D(37,38,39,41)         -0.4196         calculate D2E/DX2 analytically  !
 ! D103  D(46,38,39,40)          9.2597         calculate D2E/DX2 analytically  !
 ! D104  D(46,38,39,41)       -169.2316         calculate D2E/DX2 analytically  !
 ! D105  D(37,38,46,6)        -170.6672         calculate D2E/DX2 analytically  !
 ! D106  D(37,38,46,15)         94.787          calculate D2E/DX2 analytically  !
 ! D107  D(37,38,46,29)        -46.6218         calculate D2E/DX2 analytically  !
 ! D108  D(39,38,46,6)          -4.1773         calculate D2E/DX2 analytically  !
 ! D109  D(39,38,46,15)        -98.7232         calculate D2E/DX2 analytically  !
 ! D110  D(39,38,46,29)        119.868          calculate D2E/DX2 analytically  !
 ! D111  D(38,39,41,42)        178.6687         calculate D2E/DX2 analytically  !
 ! D112  D(38,39,41,43)          0.2713         calculate D2E/DX2 analytically  !
 ! D113  D(40,39,41,42)          0.1675         calculate D2E/DX2 analytically  !
 ! D114  D(40,39,41,43)       -178.2299         calculate D2E/DX2 analytically  !
 ! D115  D(39,41,43,37)         -0.0066         calculate D2E/DX2 analytically  !
 ! D116  D(39,41,43,44)        179.4591         calculate D2E/DX2 analytically  !
 ! D117  D(42,41,43,37)       -178.3984         calculate D2E/DX2 analytically  !
 ! D118  D(42,41,43,44)          1.0673         calculate D2E/DX2 analytically  !
 --------------------------------------------------------------------------------
 Trust Radius=3.00D-01 FncErr=1.00D-07 GrdErr=1.00D-07
 Number of steps in this run=   2 maximum allowed number of steps=   2.
 GradGradGradGradGradGradGradGradGradGradGradGradGradGradGradGradGradGrad

                          Input orientation:                          
 ---------------------------------------------------------------------
 Center     Atomic     Atomic              Coordinates (Angstroms)
 Number     Number      Type              X           Y           Z
 ---------------------------------------------------------------------
    1          1             0       13.942578   56.334393   33.811575
    2          6             0       13.790770   56.673505   32.782322
    3          1             0       13.285801   57.642513   32.798301
    4          1             0       14.778213   56.797890   32.326369
    5          6             0       13.035983   55.613694   32.015369
    6          8             0       13.508052   54.455196   31.946160
    7          7             0       11.885267   55.980905   31.432007
    8          1             0       11.598202   56.943589   31.551180
    9          6             0       11.083386   55.141213   30.540701
   10          1             0       11.732824   54.376676   30.106879
   11          6             0        9.841086   54.503686   31.189689
   12          1             0        9.113238   55.282841   31.444665
   13          1             0        9.368736   53.893157   30.407737
   14          6             0       10.060126   53.663807   32.417880
   15          7             0       11.118220   52.779543   32.599993
   16          6             0       10.920215   52.174948   33.763990
   17          1             0       11.572095   51.438464   34.210004
   18          7             0        9.787183   52.624178   34.340375
   19          1             0        9.411564   52.316184   35.227523
   20          6             0        9.230905   53.571335   33.506604
   21          1             0        8.307827   54.076277   33.746363
   22          1             0       10.751668   55.769857   29.708989
   23          1             0        9.970054   50.070817   27.646154
   24          6             0       10.901507   50.643637   27.734649
   25          1             0       10.817567   51.535658   27.105566
   26          6             0       11.157865   51.021575   29.191945
   27          1             0       10.325252   51.621764   29.576563
   28          1             0       11.219876   50.117020   29.806868
   29         16             0       12.747784   51.976200   29.334586
   30          1             0       11.718252   50.030863   27.340282
   31          1             0       15.127365   47.687358   31.797011
   32          6             0       14.131164   47.805642   32.236687
   33          1             0       14.183290   47.508975   33.290471
   34          6             0       13.622694   49.242066   32.077613
   35          1             0       13.547326   49.500464   31.012927
   36          1             0       12.600760   49.315481   32.478826
   37          6             0       14.489487   50.268058   32.745918
   38          7             0       14.210416   51.631427   32.675343
   39          6             0       15.176685   52.264122   33.330901
   40          1             0       15.262125   53.334931   33.431717
   41          7             0       16.058053   51.375208   33.827212
   42          1             0       16.893777   51.601319   34.349328
   43          6             0       15.642375   50.106037   33.468701
   44          1             0       16.196184   49.223741   33.746443
   45          1             0       13.460231   47.108269   31.727450
   46         30             0       12.835972   52.552520   31.497168
 ---------------------------------------------------------------------
                    Distance matrix (angstroms):
                    1          2          3          4          5
     1  H    0.000000
     2  C    1.094260   0.000000
     3  H    1.780241   1.092806   0.000000
     4  H    1.766056   1.094718   1.778595   0.000000
     5  C    2.137212   1.510337   2.188949   2.129414   0.000000
     6  O    2.683276   2.387466   3.306740   2.691855   1.252900
     7  N    3.165411   2.435978   2.566943   3.136316   1.341381
     8  H    3.313096   2.529034   2.211741   3.276372   2.012786
     9  C    4.505250   3.834411   4.025405   4.425486   2.492091
    10  H    4.737134   4.082715   4.507902   4.479152   2.621216
    11  C    5.200771   4.779602   4.930104   5.561531   3.481556
    12  H    5.480014   5.059899   4.981030   5.929984   3.977826
    13  H    6.202079   5.737890   5.925865   6.432812   4.358146
    14  C    4.914047   4.807163   5.136127   5.664909   3.580475
    15  N    4.699137   4.726385   5.327871   5.442199   3.471601
    16  C    5.141782   5.425935   6.035132   6.190516   4.399901
    17  H    5.454178   5.862291   6.589379   6.523091   4.938819
    18  N    5.595770   5.903668   6.308883   6.810762   4.989746
    19  H    6.219406   6.643998   7.020015   7.569895   5.859004
    20  C    5.470590   5.562410   5.789504   6.525046   4.568767
    21  H    6.070730   6.143097   6.196538   7.161666   5.264547
    22  H    5.227984   4.415665   4.412768   4.911272   3.249903
    23  H    9.644986   9.196389   9.740091   9.501384   7.695027
    24  C    8.863512   8.377718   8.961568   8.601602   6.897972
    25  H    8.818396   8.213584   8.705922   8.404438   6.757064
    26  C    7.571106   7.194951   7.833948   7.503156   5.708469
    27  H    7.295838   6.914246   7.442705   7.360881   5.406602
    28  H    7.880769   7.645281   8.357617   7.977699   6.195898
    29  S    6.361196   5.919407   6.662873   6.026782   4.527805
    30  H    9.303749   8.833789   9.496546   8.945226   7.400058
    31  H    8.957310   9.138280  10.173448   9.132575   8.200510
    32  C    8.674989   8.891152   9.889089   9.015944   7.887591
    33  H    8.844066   9.186996  10.185102   9.357744   8.284243
    34  C    7.308218   7.466669   8.438033   7.647717   6.398887
    35  H    7.395353   7.392060   8.339600   7.516159   6.215944
    36  H    7.269238   7.459809   8.361268   7.794292   6.330221
    37  C    6.183458   6.443546   7.472228   6.549663   5.587683
    38  N    4.845684   5.060642   6.083024   5.209272   4.203964
    39  C    4.280324   4.654499   5.725923   4.660785   4.187226
    40  H    3.298828   3.705762   4.781457   3.667158   3.486332
    41  N    5.391567   5.856989   6.929874   5.770269   5.511846
    42  H    5.603637   6.149085   7.205498   5.964255   6.035652
    43  C    6.465237   6.857929   7.924730   6.843434   6.264163
    44  H    7.459515   7.887619   8.957959   7.835496   7.335870
    45  H    9.470882   9.628903  10.589969   9.797170   8.520866
    46  Zn   4.569860   4.421061   5.272886   4.741629   3.111162
                    6          7          8          9         10
     6  O    0.000000
     7  N    2.285951   0.000000
     8  H    3.161588   1.011618   0.000000
     9  C    2.885297   1.463735   2.129474   0.000000
    10  H    2.557451   2.086325   2.948419   1.092927   0.000000
    11  C    3.744494   2.533687   3.028408   1.539784   2.183411
    12  H    4.500098   2.858601   2.990731   2.172255   3.077830
    13  H    4.451581   3.426478   3.947546   2.124936   2.431712
    14  C    3.568895   3.109989   3.724757   2.598767   2.940549
    15  N    2.991088   3.493032   4.320842   3.133590   3.023936
    16  C    3.898837   4.566703   5.300578   4.383486   4.345388
    17  H    4.239527   5.333771   6.113626   5.235740   5.049213
    18  N    4.788502   4.912044   5.451303   4.738473   4.977877
    19  H    5.667798   5.827121   6.301568   5.722070   5.987894
    20  C    4.637906   4.141934   4.560687   3.833116   4.297243
    21  H    5.516036   4.667112   4.885373   4.371966   5.006665
    22  H    3.785621   2.073253   2.342634   1.094063   1.749840
    23  H    7.087331   7.275291   8.070631   5.943638   5.263358
    24  C    6.249711   6.566937   7.398695   5.304263   4.500460
    25  H    6.260492   6.294306   7.044047   4.987067   4.232842
    26  C    4.989873   5.490168   6.389847   4.335448   3.524824
    27  H    4.875812   4.987828   5.817330   3.727043   3.138795
    28  H    5.350897   6.121190   7.056047   5.079337   4.300906
    29  S    3.680183   4.602256   5.559656   3.773889   2.718246
    30  H    6.632663   7.223095   8.095175   6.063120   5.151734
    31  H    6.960463   8.912202   9.909250   8.572750   7.689371
    32  C    6.685001   8.516248   9.507255   8.122557   7.312086
    33  H    7.107257   8.972647   9.935782   8.684567   7.956466
    34  C    5.216047   6.989092   7.980549   6.603796   5.815463
    35  H    5.042007   6.703297   7.712906   6.173496   5.281173
    36  H    5.246292   6.784956   7.749431   6.324390   5.656424
    37  C    4.374351   6.414432   7.372221   6.341305   5.607535
    38  N    2.999782   5.086271   6.025485   5.162713   4.502428
    39  C    3.082636   5.315421   6.153890   5.728697   5.168885
    40  H    2.557077   4.733200   5.475688   5.392818   4.959409
    41  N    4.418957   6.660450   7.488488   7.052039   6.446494
    42  H    5.038151   7.264758   8.025746   7.797252   7.234391
    43  C    5.078252   7.264850   8.172168   7.396659   6.695131
    44  H    6.151032   8.342655   9.249685   8.451862   7.727920
    45  H    7.350337   9.016178  10.011581   8.460849   7.644601
    46  Zn   2.067235   3.558358   4.562508   3.269208   2.545070
                   11         12         13         14         15
    11  C    0.000000
    12  H    1.096293   0.000000
    13  H    1.098777   1.752633   0.000000
    14  C    1.503938   2.113059   2.138059   0.000000
    15  N    2.567626   3.408994   3.017751   1.390918   0.000000
    16  C    3.635185   4.278252   4.077225   2.183682   1.326510
    17  H    4.638349   5.335946   5.033641   3.232632   2.143975
    18  N    3.669098   3.988462   4.153438   2.202570   2.196526
    19  H    4.612349   4.816645   5.071392   3.182894   3.167221
    20  C    2.570932   2.682292   3.118580   1.371669   2.238489
    21  H    3.011668   2.720717   3.507917   2.237309   3.300605
    22  H    2.150539   2.436023   2.433671   3.500252   4.175434
    23  H    5.676583   6.505998   4.753757   5.973864   5.761597
    24  C    5.287889   6.203575   4.478188   5.635779   5.317954
    25  H    5.142253   5.981128   4.308276   5.772643   5.641486
    26  C    4.224925   5.235804   3.595152   4.311969   3.834947
    27  H    3.337973   4.285122   2.600961   3.509033   3.333223
    28  H    4.801676   5.814294   4.248173   4.554350   3.860170
    29  S    4.275334   5.347544   4.030427   4.424728   3.736806
    30  H    6.192563   7.156489   5.463224   6.459850   5.964883
    31  H    8.647307   9.694599   8.579268   7.860047   6.530572
    32  C    8.022766   9.039657   7.942520   7.136125   5.826621
    33  H    8.496706   9.462845   8.499875   7.459481   6.135984
    34  C    6.540154   7.564839   6.520529   5.688538   4.365663
    35  H    6.228940   7.299550   6.092834   5.609625   4.378549
    36  H    6.016240   6.988683   5.974153   5.036514   3.769924
    37  C    6.478428   7.466282   6.695560   5.590882   4.206458
    38  N    5.435815   6.389728   5.805112   4.628365   3.299321
    39  C    6.170012   7.031070   6.703053   5.382555   4.155842
    40  H    5.981667   6.749188   6.647414   5.310068   4.262883
    41  N    7.442754   8.317246   7.923373   6.572597   5.280168
    42  H    8.255151   9.084463   8.798575   7.394805   6.148613
    43  C    7.628117   8.574710   7.941683   6.702496   5.326374
    44  H    8.648820   9.600990   8.919891   7.689635   6.304268
    45  H    8.251036   9.262826   8.032228   7.417040   6.197556
    46  Zn   3.587609   4.616943   3.873744   3.128576   2.053882
                   16         17         18         19         20
    16  C    0.000000
    17  H    1.079947   0.000000
    18  N    1.348254   2.146818   0.000000
    19  H    2.106634   2.544334   1.011426   0.000000
    20  C    2.206788   3.244238   1.379031   2.137664   0.000000
    21  H    3.231089   4.222377   2.156371   2.551470   1.079131
    22  H    5.421698   6.300254   5.681132   6.646650   4.644146
    23  H    6.538967   6.893556   7.166985   7.926584   6.866210
    24  C    6.220789   6.558328   6.985691   7.820518   6.684145
    25  H    6.689831   7.145054   7.388438   8.279628   6.901794
    26  C    4.721265   5.052356   5.563581   6.415122   5.369426
    27  H    4.265506   4.801769   4.897780   5.766315   4.521465
    28  H    4.470311   4.610627   5.375047   6.122892   5.438414
    29  S    4.795741   5.043918   5.851748   6.780314   5.684947
    30  H    6.818943   7.013970   7.710746   8.529482   7.532952
    31  H    6.458141   5.703795   7.704443   8.115715   8.503654
    32  C    5.633266   4.862119   6.820114   7.180857   7.672577
    33  H    5.713421   4.806741   6.825933   7.044913   7.831031
    34  C    4.330018   3.684591   5.591951   6.091449   6.330276
    35  H    4.650046   4.228319   5.913390   6.541837   6.435985
    36  H    3.557025   2.926121   4.725363   5.170157   5.524902
    37  C    4.172817   3.467647   5.495931   6.011530   6.256434
    38  N    3.507989   3.058293   4.829376   5.478275   5.408305
    39  C    4.279375   3.801000   5.495035   6.069309   6.090318
    40  H    4.506456   4.221213   5.595161   6.204179   6.036315
    41  N    5.200092   4.502704   6.414598   6.857268   7.178837
    42  H    6.029521   5.325996   7.179833   7.567416   7.956806
    43  C    5.163950   4.346501   6.433049   6.841141   7.288118
    44  H    6.045311   5.148018   7.279494   7.601834   8.214269
    45  H    6.022493   5.336546   7.123476   7.467570   7.926147
    46  Zn   2.991850   3.193428   4.169421   5.069317   4.251155
                   21         22         23         24         25
    21  H    0.000000
    22  H    5.014076   0.000000
    23  H    7.484601   6.111077   0.000000
    24  C    7.392625   5.495326   1.097068   0.000000
    25  H    7.540140   4.970975   1.776590   1.094756   0.000000
    26  C    6.180343   4.793591   2.168940   1.527176   2.175559
    27  H    5.242315   4.172055   2.501616   2.163666   2.521034
    28  H    6.298838   5.673039   2.496572   2.161661   3.077567
    29  S    6.602069   4.303079   3.767900   2.782851   2.981332
    30  H    8.308685   6.283400   1.775204   1.094573   1.769388
    31  H    9.545908   9.425145   7.036217   6.565078   7.442676
    32  C    8.689720   9.013267   6.596881   6.225211   7.156909
    33  H    8.823738   9.635622   7.494845   7.173797   8.111431
    34  C    7.375780   7.514335   5.802278   5.313247   6.152280
    35  H    7.474095   6.987221   4.945436   4.365124   5.182766
    36  H    6.534608   7.262927   5.553905   5.211399   6.081191
    37  C    7.329143   7.311910   6.817020   6.174745   6.848604
    38  N    6.478035   6.155388   6.760836   6.027857   6.522500
    39  C    7.116019   6.707399   8.014732   7.226420   7.634616
    40  H    7.000776   6.334966   8.493126   7.662548   7.937988
    41  N    8.207820   8.026856   8.773291   8.015266   8.524609
    42  H    8.955866   8.754140   9.757710   8.976549   9.454984
    43  C    8.344788   8.374563   8.128869   7.459503   8.112463
    44  H    9.261387   9.423133   8.757611   8.135809   8.853007
    45  H    8.898113   9.296968   6.133107   5.915096   6.924396
    46  Zn   5.280607   4.230032   5.403947   4.641394   4.939042
                   26         27         28         29         30
    26  C    0.000000
    27  H    1.096085   0.000000
    28  H    1.095535   1.765686   0.000000
    29  S    1.859973   2.460251   2.452368   0.000000
    30  H    2.173522   3.077721   2.517905   2.970104   0.000000
    31  H    5.801750   6.593196   5.013223   5.488180   6.080830
    32  C    5.334153   6.010326   4.440956   5.265880   5.894788
    33  H    6.187849   6.752230   5.264904   6.137248   6.916724
    34  C    4.191553   4.774027   3.419848   3.970536   5.166372
    35  H    3.367385   4.116408   2.692906   3.096025   4.137046
    36  H    3.974455   4.349714   3.112662   4.121564   5.262625
    37  C    4.929322   5.405385   4.398998   4.193861   6.079218
    38  N    4.671622   4.969610   4.411905   3.663170   6.102094
    39  C    5.901338   6.167988   5.717097   4.685402   7.268818
    40  H    6.338157   6.493833   6.311439   4.995452   7.783410
    41  N    6.754450   7.140995   6.415151   5.612732   7.919683
    42  H    7.735334   8.119435   7.418237   6.517472   8.853198
    43  C    6.264158   6.761505   5.741745   5.382107   7.277492
    44  H    7.025690   7.589879   6.409512   6.239550   7.857621
    45  H    5.200350   5.901360   4.214310   5.470845   5.551872
    46  Zn   3.236339   3.295261   3.376469   2.239796   4.988762
                   31         32         33         34         35
    31  H    0.000000
    32  C    1.095319   0.000000
    33  H    1.775815   1.095987   0.000000
    34  C    2.181717   1.532045   2.188355   0.000000
    35  H    2.529558   2.170456   3.091551   1.098183   0.000000
    36  H    3.082108   2.163419   2.535080   1.100323   1.754727
    37  C    2.822645   2.539922   2.828928   1.500207   2.116631
    38  N    4.143422   3.851666   4.168181   2.532142   2.782862
    39  C    4.827216   4.708340   4.857972   3.621939   3.957982
    40  H    5.880944   5.768900   5.926686   4.612253   4.847084
    41  N    4.311396   4.357117   4.330194   3.679995   4.211724
    42  H    4.995360   5.148053   5.021473   4.628904   5.171451
    43  C    2.984927   3.015532   2.984196   2.600131   3.284322
    44  H    2.702431   2.924838   2.683296   3.067276   3.816430
    45  H    1.766216   1.093528   1.768167   2.168433   2.498144
    46  Zn   5.386111   4.975667   5.519832   3.451804   3.171051
                   36         37         38         39         40
    36  H    0.000000
    37  C    2.132142   0.000000
    38  N    2.827228   1.393426   0.000000
    39  C    4.006981   2.190597   1.328057   0.000000
    40  H    4.913944   3.236202   2.140121   1.078933   0.000000
    41  N    4.244230   2.203492   2.192308   1.346589   2.151844
    42  H    5.210933   3.182628   3.162841   2.103547   2.551414
    43  C    3.294882   1.370334   2.237574   2.212055   3.251417
    44  H    3.813442   2.237066   3.299619   3.233569   4.227695
    45  H    2.484963   3.475761   4.681906   5.665694   6.702438
    46  Zn   3.390781   3.084194   2.031158   2.987421   3.200135
                   41         42         43         44         45
    41  N    0.000000
    42  H    1.011023   0.000000
    43  C    1.382792   2.139481   0.000000
    44  H    2.157409   2.550094   1.078097   0.000000
    45  H    5.418898   6.233056   4.096379   4.004622   0.000000
    46  Zn   4.146923   5.050286   4.212851   5.237464   5.484761
                   46
    46  Zn   0.000000
 Stoichiometry    C14H24N5OSZn(1+)
 Framework group  C1[X(C14H24N5OSZn)]
 Deg. of freedom   132
 Full point group                 C1
 Largest Abelian subgroup         C1      NOp   1
 Largest concise Abelian subgroup C1      NOp   1
                         Standard orientation:                         
 ---------------------------------------------------------------------
 Center     Atomic     Atomic              Coordinates (Angstroms)
 Number     Number      Type              X           Y           Z
 ---------------------------------------------------------------------
    1          1             0        2.223744   -3.861839   -0.873050
    2          6             0        2.680713   -3.180140   -1.596839
    3          1             0        3.761415   -3.342166   -1.604327
    4          1             0        2.279854   -3.429666   -2.584491
    5          6             0        2.286846   -1.761162   -1.261446
    6          8             0        1.071919   -1.460818   -1.202241
    7          7             0        3.278344   -0.882576   -1.050924
    8          1             0        4.224361   -1.233079   -1.125550
    9          6             0        3.104108    0.556486   -0.847792
   10          1             0        2.150612    0.856357   -1.289847
   11          6             0        3.202794    1.024096    0.615949
   12          1             0        4.227657    0.889636    0.981235
   13          1             0        3.027013    2.108623    0.601442
   14          6             0        2.275692    0.378986    1.608997
   15          7             0        0.942399    0.065297    1.366962
   16          6             0        0.446224   -0.412618    2.500557
   17          1             0       -0.564009   -0.765300    2.646600
   18          7             0        1.392304   -0.421420    3.461101
   19          1             0        1.264821   -0.731981    4.415188
   20          6             0        2.559157    0.070637    2.915154
   21          1             0        3.465699    0.170198    3.492038
   22          1             0        3.882765    1.065239   -1.423846
   23          1             0       -0.227503    5.449840   -0.316491
   24          6             0       -0.274283    4.640420   -1.055550
   25          1             0        0.567966    4.755678   -1.745351
   26          6             0       -0.232588    3.281347   -0.360243
   27          1             0        0.690077    3.186152    0.223733
   28          1             0       -1.071867    3.193505    0.338392
   29         16             0       -0.330870    1.915862   -1.619326
   30          1             0       -1.197759    4.756614   -1.631554
   31          1             0       -5.420291    0.715823    0.047355
   32          6             0       -4.811913    0.876707    0.943857
   33          1             0       -5.180884    0.211983    1.733281
   34          6             0       -3.326029    0.641189    0.654304
   35          1             0       -2.974996    1.342814   -0.114140
   36          1             0       -2.737223    0.863180    1.556932
   37          6             0       -3.013180   -0.751239    0.191821
   38          7             0       -1.722345   -1.141779   -0.158694
   39          6             0       -1.789376   -2.407621   -0.554784
   40          1             0       -0.957564   -2.990379   -0.918898
   41          7             0       -3.057114   -2.853234   -0.467771
   42          1             0       -3.377352   -3.776339   -0.727564
   43          6             0       -3.848188   -1.821157    0.002474
   44          1             0       -4.910188   -1.936111    0.148197
   45          1             0       -4.974532    1.906716    1.273158
   46         30             0       -0.094941    0.048255   -0.405626
 ---------------------------------------------------------------------
 Rotational constants (GHZ):      0.2692666      0.1942824      0.1647761
 Standard basis: 6-31G(d) (6D, 7F)
 There are   403 symmetry adapted basis functions of A   symmetry.
 Integral buffers will be    131072 words long.
 Raffenetti 2 integral format.
 Two-electron integral symmetry is turned on.
   403 basis functions,   812 primitive gaussians,   406 cartesian basis functions
    98 alpha electrons       98 beta electrons
       nuclear repulsion energy      2684.7832300696 Hartrees.
 NAtoms=   46 NActive=   46 NUniq=   46 SFac= 7.50D-01 NAtFMM=   80 NAOKFM=F Big=F
 One-electron integrals computed using PRISM.
 NBasis=   403 RedAO= T  NBF=   403
 NBsUse=   403 1.00D-06 NBFU=   403
 Initial guess read from the checkpoint file:
 1E67_small_opt.chk
 Initial guess orbital symmetries:
       Occupied  (A) (A) (A) (A) (A) (A) (A) (A) (A) (A) (A) (A)
                 (A) (A) (A) (A) (A) (A) (A) (A) (A) (A) (A) (A)
                 (A) (A) (A) (A) (A) (A) (A) (A) (A) (A) (A) (A)
                 (A) (A) (A) (A) (A) (A) (A) (A) (A) (A) (A) (A)
                 (A) (A) (A) (A) (A) (A) (A) (A) (A) (A) (A) (A)
                 (A) (A) (A) (A) (A) (A) (A) (A) (A) (A) (A) (A)
                 (A) (A) (A) (A) (A) (A) (A) (A) (A) (A) (A) (A)
                 (A) (A) (A) (A) (A) (A) (A) (A) (A) (A) (A) (A)
                 (A) (A)
       Virtual   (A) (A) (A) (A) (A) (A) (A) (A) (A) (A) (A) (A)
                 (A) (A) (A) (A) (A) (A) (A) (A) (A) (A) (A) (A)
                 (A) (A) (A) (A) (A) (A) (A) (A) (A) (A) (A) (A)
                 (A) (A) (A) (A) (A) (A) (A) (A) (A) (A) (A) (A)
                 (A) (A) (A) (A) (A) (A) (A) (A) (A) (A) (A) (A)
                 (A) (A) (A) (A) (A) (A) (A) (A) (A) (A) (A) (A)
                 (A) (A) (A) (A) (A) (A) (A) (A) (A) (A) (A) (A)
                 (A) (A) (A) (A) (A) (A) (A) (A) (A) (A) (A) (A)
                 (A) (A) (A) (A) (A) (A) (A) (A) (A) (A) (A) (A)
                 (A) (A) (A) (A) (A) (A) (A) (A) (A) (A) (A) (A)
                 (A) (A) (A) (A) (A) (A) (A) (A) (A) (A) (A) (A)
                 (A) (A) (A) (A) (A) (A) (A) (A) (A) (A) (A) (A)
                 (A) (A) (A) (A) (A) (A) (A) (A) (A) (A) (A) (A)
                 (A) (A) (A) (A) (A) (A) (A) (A) (A) (A) (A) (A)
                 (A) (A) (A) (A) (A) (A) (A) (A) (A) (A) (A) (A)
                 (A) (A) (A) (A) (A) (A) (A) (A) (A) (A) (A) (A)
                 (A) (A) (A) (A) (A) (A) (A) (A) (A) (A) (A) (A)
                 (A) (A) (A) (A) (A) (A) (A) (A) (A) (A) (A) (A)
                 (A) (A) (A) (A) (A) (A) (A) (A) (A) (A) (A) (A)
                 (A) (A) (A) (A) (A) (A) (A) (A) (A) (A) (A) (A)
                 (A) (A) (A) (A) (A) (A) (A) (A) (A) (A) (A) (A)
                 (A) (A) (A) (A) (A) (A) (A) (A) (A) (A) (A) (A)
                 (A) (A) (A) (A) (A) (A) (A) (A) (A) (A) (A) (A)
                 (A) (A) (A) (A) (A) (A) (A) (A) (A) (A) (A) (A)
                 (A) (A) (A) (A) (A) (A) (A) (A) (A) (A) (A) (A)
                 (A) (A) (A) (A) (A)
 Requested convergence on RMS density matrix=1.00D-08 within 128 cycles.
 Requested convergence on MAX density matrix=1.00D-06.
 Requested convergence on             energy=1.00D-06.
 No special actions if energy rises.
 SCF Done:  E(RB+HF-LYP) =  -3074.19985472     A.U. after    1 cycles
             Convg  =    0.3788D-08             -V/T =  2.0042
             S**2   =   0.0000
 QCSCF skips out because SCF is already converged.
 Range of M.O.s used for correlation:     1   403
 NBasis=   403 NAE=    98 NBE=    98 NFC=     0 NFV=     0
 NROrb=    403 NOA=    98 NOB=    98 NVA=   305 NVB=   305

 **** Warning!!: The largest alpha MO coefficient is  0.23870017D+02

 Symmetrizing basis deriv contribution to polar:
 IMax=3 JMax=2 DiffMx= 0.00D+00
 G2DrvN: will do   47 centers at a time, making    1 passes doing MaxLOS=3.
 FoFDir/FoFCou used for L=0 through L=3.
 DoAtom=TTTTTTTTTTTTTTTTTTTTTTTTTTTTTTTTTTTTTTTTTTTTTT
          Differentiating once with respect to electric field.
                with respect to dipole field.
          Differentiating once with respect to nuclear coordinates.
 Integrals replicated using symmetry in FoFDir.
 MinBra= 0 MaxBra= 3 Meth= 1.
 IRaf=       0 NMat= 141 IRICut=     141 DoRegI=T DoRafI=T ISym2E= 2 JSym2E=2.
          There are 141 degrees of freedom in the 1st order CPHF.
   138 vectors were produced by pass  0.
 AX will form 138 AO Fock derivatives at one time.
   138 vectors were produced by pass  1.
   138 vectors were produced by pass  2.
   138 vectors were produced by pass  3.
   138 vectors were produced by pass  4.
   123 vectors were produced by pass  5.
     6 vectors were produced by pass  6.
     3 vectors were produced by pass  7.
 Inv2:  IOpt= 1 Iter= 1 AM= 4.44D-15 Conv= 1.00D-12.
 Inverted reduced A of dimension  822 with in-core refinement.
 Isotropic polarizability for W=    0.000000      209.58 Bohr**3.
 End of Minotr Frequency-dependent properties file   721 does not exist.

 **********************************************************************

            Population analysis using the SCF density.

 **********************************************************************

 Orbital symmetries:
       Occupied  (A) (A) (A) (A) (A) (A) (A) (A) (A) (A) (A) (A)
                 (A) (A) (A) (A) (A) (A) (A) (A) (A) (A) (A) (A)
                 (A) (A) (A) (A) (A) (A) (A) (A) (A) (A) (A) (A)
                 (A) (A) (A) (A) (A) (A) (A) (A) (A) (A) (A) (A)
                 (A) (A) (A) (A) (A) (A) (A) (A) (A) (A) (A) (A)
                 (A) (A) (A) (A) (A) (A) (A) (A) (A) (A) (A) (A)
                 (A) (A) (A) (A) (A) (A) (A) (A) (A) (A) (A) (A)
                 (A) (A) (A) (A) (A) (A) (A) (A) (A) (A) (A) (A)
                 (A) (A)
       Virtual   (A) (A) (A) (A) (A) (A) (A) (A) (A) (A) (A) (A)
                 (A) (A) (A) (A) (A) (A) (A) (A) (A) (A) (A) (A)
                 (A) (A) (A) (A) (A) (A) (A) (A) (A) (A) (A) (A)
                 (A) (A) (A) (A) (A) (A) (A) (A) (A) (A) (A) (A)
                 (A) (A) (A) (A) (A) (A) (A) (A) (A) (A) (A) (A)
                 (A) (A) (A) (A) (A) (A) (A) (A) (A) (A) (A) (A)
                 (A) (A) (A) (A) (A) (A) (A) (A) (A) (A) (A) (A)
                 (A) (A) (A) (A) (A) (A) (A) (A) (A) (A) (A) (A)
                 (A) (A) (A) (A) (A) (A) (A) (A) (A) (A) (A) (A)
                 (A) (A) (A) (A) (A) (A) (A) (A) (A) (A) (A) (A)
                 (A) (A) (A) (A) (A) (A) (A) (A) (A) (A) (A) (A)
                 (A) (A) (A) (A) (A) (A) (A) (A) (A) (A) (A) (A)
                 (A) (A) (A) (A) (A) (A) (A) (A) (A) (A) (A) (A)
                 (A) (A) (A) (A) (A) (A) (A) (A) (A) (A) (A) (A)
                 (A) (A) (A) (A) (A) (A) (A) (A) (A) (A) (A) (A)
                 (A) (A) (A) (A) (A) (A) (A) (A) (A) (A) (A) (A)
                 (A) (A) (A) (A) (A) (A) (A) (A) (A) (A) (A) (A)
                 (A) (A) (A) (A) (A) (A) (A) (A) (A) (A) (A) (A)
                 (A) (A) (A) (A) (A) (A) (A) (A) (A) (A) (A) (A)
                 (A) (A) (A) (A) (A) (A) (A) (A) (A) (A) (A) (A)
                 (A) (A) (A) (A) (A) (A) (A) (A) (A) (A) (A) (A)
                 (A) (A) (A) (A) (A) (A) (A) (A) (A) (A) (A) (A)
                 (A) (A) (A) (A) (A) (A) (A) (A) (A) (A) (A) (A)
                 (A) (A) (A) (A) (A) (A) (A) (A) (A) (A) (A) (A)
                 (A) (A) (A) (A) (A) (A) (A) (A) (A) (A) (A) (A)
                 (A) (A) (A) (A) (A)
 The electronic state is 1-A.
 Alpha  occ. eigenvalues -- -347.34626 -88.89838 -42.31399 -37.29866 -37.29767
 Alpha  occ. eigenvalues --  -37.29718 -19.26787 -14.53561 -14.52121 -14.50194
 Alpha  occ. eigenvalues --  -14.48401 -14.47073 -10.43337 -10.39016 -10.37575
 Alpha  occ. eigenvalues --  -10.34963 -10.34870 -10.34151 -10.33275 -10.33075
 Alpha  occ. eigenvalues --  -10.31888 -10.31294 -10.29048 -10.27941 -10.26796
 Alpha  occ. eigenvalues --  -10.23939  -7.96124  -5.92581  -5.92130  -5.91759
 Alpha  occ. eigenvalues --   -4.89350  -3.28584  -3.28396  -3.28314  -1.17580
 Alpha  occ. eigenvalues --   -1.16169  -1.14682  -1.06159  -1.02159  -1.00692
 Alpha  occ. eigenvalues --   -0.91943  -0.89817  -0.88258  -0.84898  -0.84310
 Alpha  occ. eigenvalues --   -0.83952  -0.77992  -0.76142  -0.75829  -0.73534
 Alpha  occ. eigenvalues --   -0.73369  -0.72255  -0.71942  -0.69483  -0.68480
 Alpha  occ. eigenvalues --   -0.66467  -0.65055  -0.64344  -0.62306  -0.60151
 Alpha  occ. eigenvalues --   -0.58973  -0.58168  -0.57744  -0.57404  -0.56981
 Alpha  occ. eigenvalues --   -0.56504  -0.56151  -0.55730  -0.55308  -0.55161
 Alpha  occ. eigenvalues --   -0.54590  -0.54159  -0.53886  -0.53522  -0.53325
 Alpha  occ. eigenvalues --   -0.52753  -0.52196  -0.51554  -0.50614  -0.49401
 Alpha  occ. eigenvalues --   -0.48875  -0.47854  -0.46815  -0.46290  -0.45310
 Alpha  occ. eigenvalues --   -0.45083  -0.44105  -0.43396  -0.42943  -0.41848
 Alpha  occ. eigenvalues --   -0.41386  -0.40719  -0.39616  -0.38336  -0.36343
 Alpha  occ. eigenvalues --   -0.34770  -0.31898  -0.28230
 Alpha virt. eigenvalues --   -0.11817  -0.11459  -0.10285  -0.08386  -0.06603
 Alpha virt. eigenvalues --   -0.06317  -0.05463  -0.04162  -0.03974  -0.02996
 Alpha virt. eigenvalues --   -0.02234  -0.01290   0.00244   0.00604   0.01606
 Alpha virt. eigenvalues --    0.01965   0.02481   0.03327   0.03805   0.04428
 Alpha virt. eigenvalues --    0.05001   0.05225   0.05758   0.06585   0.06735
 Alpha virt. eigenvalues --    0.07197   0.07423   0.07677   0.08292   0.08481
 Alpha virt. eigenvalues --    0.09314   0.09623   0.10646   0.10894   0.11113
 Alpha virt. eigenvalues --    0.11738   0.12032   0.12170   0.12511   0.13353
 Alpha virt. eigenvalues --    0.14311   0.14930   0.15871   0.16410   0.17183
 Alpha virt. eigenvalues --    0.18851   0.19601   0.20022   0.22314   0.23502
 Alpha virt. eigenvalues --    0.24626   0.24807   0.28198   0.29420   0.31019
 Alpha virt. eigenvalues --    0.31954   0.33026   0.34845   0.36472   0.37490
 Alpha virt. eigenvalues --    0.39187   0.40453   0.41239   0.41901   0.42272
 Alpha virt. eigenvalues --    0.42600   0.43094   0.43370   0.43547   0.44895
 Alpha virt. eigenvalues --    0.45354   0.45471   0.46170   0.46640   0.47196
 Alpha virt. eigenvalues --    0.48400   0.48682   0.49360   0.49736   0.50351
 Alpha virt. eigenvalues --    0.51034   0.51994   0.52216   0.52998   0.53586
 Alpha virt. eigenvalues --    0.54145   0.55597   0.55880   0.56535   0.57516
 Alpha virt. eigenvalues --    0.57769   0.60289   0.61369   0.62298   0.62688
 Alpha virt. eigenvalues --    0.64289   0.65013   0.65458   0.66454   0.66671
 Alpha virt. eigenvalues --    0.67428   0.67981   0.69246   0.69683   0.70165
 Alpha virt. eigenvalues --    0.71574   0.72105   0.72639   0.74227   0.74330
 Alpha virt. eigenvalues --    0.75104   0.75623   0.76622   0.76893   0.77335
 Alpha virt. eigenvalues --    0.77970   0.78778   0.79367   0.79958   0.80617
 Alpha virt. eigenvalues --    0.81091   0.81278   0.82309   0.82569   0.83069
 Alpha virt. eigenvalues --    0.83321   0.84216   0.84428   0.84998   0.85928
 Alpha virt. eigenvalues --    0.87145   0.87551   0.88218   0.89784   0.90634
 Alpha virt. eigenvalues --    0.91481   0.92219   0.93738   0.94090   0.96413
 Alpha virt. eigenvalues --    0.96499   0.97453   0.99379   0.99861   1.00607
 Alpha virt. eigenvalues --    1.01412   1.04142   1.06365   1.06713   1.09336
 Alpha virt. eigenvalues --    1.09693   1.11302   1.13050   1.13832   1.14690
 Alpha virt. eigenvalues --    1.16610   1.17519   1.18128   1.20084   1.21989
 Alpha virt. eigenvalues --    1.22263   1.22688   1.24095   1.24952   1.25912
 Alpha virt. eigenvalues --    1.26970   1.28465   1.29674   1.30884   1.34251
 Alpha virt. eigenvalues --    1.36357   1.37601   1.38333   1.39775   1.40465
 Alpha virt. eigenvalues --    1.41489   1.43035   1.46061   1.46447   1.49477
 Alpha virt. eigenvalues --    1.51159   1.52114   1.53507   1.56591   1.58133
 Alpha virt. eigenvalues --    1.59984   1.61115   1.63415   1.64198   1.65583
 Alpha virt. eigenvalues --    1.68615   1.69946   1.70501   1.71767   1.72865
 Alpha virt. eigenvalues --    1.74581   1.75168   1.77995   1.78709   1.80400
 Alpha virt. eigenvalues --    1.81160   1.84642   1.85329   1.86339   1.87696
 Alpha virt. eigenvalues --    1.88810   1.89999   1.90212   1.91177   1.91549
 Alpha virt. eigenvalues --    1.92548   1.92804   1.92951   1.93784   1.95495
 Alpha virt. eigenvalues --    2.00142   2.04363   2.04730   2.06395   2.06933
 Alpha virt. eigenvalues --    2.07901   2.08154   2.09328   2.10646   2.10971
 Alpha virt. eigenvalues --    2.11318   2.11776   2.13160   2.13838   2.14577
 Alpha virt. eigenvalues --    2.15542   2.18120   2.18762   2.20073   2.20657
 Alpha virt. eigenvalues --    2.21163   2.21304   2.21938   2.23116   2.24169
 Alpha virt. eigenvalues --    2.24936   2.25028   2.25620   2.26716   2.27182
 Alpha virt. eigenvalues --    2.29270   2.29863   2.31192   2.32085   2.32576
 Alpha virt. eigenvalues --    2.33438   2.35261   2.37505   2.38049   2.41993
 Alpha virt. eigenvalues --    2.42510   2.44817   2.47005   2.47184   2.48478
 Alpha virt. eigenvalues --    2.49683   2.50624   2.55480   2.56201   2.58876
 Alpha virt. eigenvalues --    2.58906   2.60862   2.61608   2.64079   2.65047
 Alpha virt. eigenvalues --    2.67127   2.68011   2.68541   2.73978   2.82253
 Alpha virt. eigenvalues --    2.88732   2.90010   2.90925   2.96715   2.98057
 Alpha virt. eigenvalues --    2.99511   3.03197   3.06214   3.78121   3.80500
 Alpha virt. eigenvalues --    3.83743   3.89352   3.93835   3.97245   4.00991
 Alpha virt. eigenvalues --    4.02007   4.04433   4.09033   4.11042   4.15110
 Alpha virt. eigenvalues --    4.17005   4.19085   4.19818   4.24870   4.30341
 Alpha virt. eigenvalues --    4.34553   4.38700   4.46657   4.51174  47.30951
          Condensed to atoms (all electrons):
              1          2          3          4          5          6
     1  H    0.504036   0.361543  -0.023622  -0.022299  -0.021068  -0.000356
     2  C    0.361543   5.252488   0.354560   0.365092   0.374547  -0.074678
     3  H   -0.023622   0.354560   0.532594  -0.021794  -0.028421   0.003022
     4  H   -0.022299   0.365092  -0.021794   0.480886  -0.020946   0.000105
     5  C   -0.021068   0.374547  -0.028421  -0.020946   4.343178   0.431727
     6  O   -0.000356  -0.074678   0.003022   0.000105   0.431727   8.141902
     7  N    0.001150  -0.095903   0.003267   0.000448   0.339576  -0.073843
     8  H    0.000012   0.000608   0.003334   0.000029  -0.020628   0.002844
     9  C   -0.000106   0.006460   0.000020  -0.000161  -0.018202   0.004349
    10  H   -0.000005   0.000153  -0.000002   0.000008  -0.003733   0.000487
    11  C    0.000020  -0.000198   0.000001  -0.000005  -0.002201  -0.000432
    12  H   -0.000001   0.000006   0.000000   0.000000  -0.000031  -0.000016
    13  H    0.000000   0.000003   0.000000   0.000000   0.000041  -0.000019
    14  C   -0.000007  -0.000087   0.000001   0.000001   0.002536  -0.000028
    15  N    0.000004  -0.000057   0.000002  -0.000001   0.000830  -0.008728
    16  C    0.000001  -0.000003   0.000000   0.000000   0.000016  -0.000354
    17  H    0.000000   0.000000   0.000000   0.000000  -0.000003  -0.000046
    18  N    0.000000   0.000000   0.000000   0.000000  -0.000028  -0.000008
    19  H    0.000000   0.000000   0.000000   0.000000   0.000000   0.000000
    20  C    0.000001   0.000000   0.000000   0.000000   0.000003   0.000026
    21  H    0.000000   0.000000   0.000000   0.000000   0.000002   0.000000
    22  H   -0.000002  -0.000196  -0.000022   0.000014   0.003258   0.000341
    23  H    0.000000   0.000000   0.000000   0.000000   0.000000   0.000000
    24  C    0.000000   0.000000   0.000000   0.000000   0.000000   0.000000
    25  H    0.000000   0.000000   0.000000   0.000000   0.000000   0.000000
    26  C    0.000000   0.000000   0.000000   0.000000  -0.000001   0.000023
    27  H    0.000000   0.000000   0.000000   0.000000   0.000003   0.000000
    28  H    0.000000   0.000000   0.000000   0.000000  -0.000001  -0.000002
    29  S   -0.000001  -0.000040   0.000001  -0.000001  -0.000811  -0.007601
    30  H    0.000000   0.000000   0.000000   0.000000   0.000000   0.000000
    31  H    0.000000   0.000000   0.000000   0.000000   0.000000   0.000000
    32  C    0.000000   0.000000   0.000000   0.000000   0.000000   0.000000
    33  H    0.000000   0.000000   0.000000   0.000000   0.000000   0.000000
    34  C    0.000000   0.000000   0.000000   0.000000   0.000000   0.000001
    35  H    0.000000   0.000000   0.000000   0.000000   0.000000   0.000000
    36  H    0.000000   0.000000   0.000000   0.000000   0.000000  -0.000001
    37  C    0.000000   0.000000   0.000000   0.000000  -0.000004   0.000047
    38  N   -0.000004  -0.000016   0.000000  -0.000001   0.000131  -0.008714
    39  C   -0.000071  -0.000034   0.000000  -0.000026   0.000070  -0.001557
    40  H    0.000453   0.000033   0.000005   0.000128  -0.000391   0.010254
    41  N    0.000001  -0.000001   0.000000   0.000000   0.000002   0.000121
    42  H    0.000000   0.000000   0.000000   0.000000   0.000000   0.000001
    43  C    0.000000   0.000000   0.000000   0.000000   0.000000  -0.000010
    44  H    0.000000   0.000000   0.000000   0.000000   0.000000   0.000000
    45  H    0.000000   0.000000   0.000000   0.000000   0.000000   0.000000
    46  Zn   0.000611  -0.003110   0.000330   0.000348  -0.021041   0.150310
              7          8          9         10         11         12
     1  H    0.001150   0.000012  -0.000106  -0.000005   0.000020  -0.000001
     2  C   -0.095903   0.000608   0.006460   0.000153  -0.000198   0.000006
     3  H    0.003267   0.003334   0.000020  -0.000002   0.000001   0.000000
     4  H    0.000448   0.000029  -0.000161   0.000008  -0.000005   0.000000
     5  C    0.339576  -0.020628  -0.018202  -0.003733  -0.002201  -0.000031
     6  O   -0.073843   0.002844   0.004349   0.000487  -0.000432  -0.000016
     7  N    6.977152   0.306950   0.210471  -0.033403  -0.053480  -0.001924
     8  H    0.306950   0.375423  -0.024561   0.003231   0.001151   0.001257
     9  C    0.210471  -0.024561   5.099637   0.346861   0.334140  -0.031239
    10  H   -0.033403   0.003231   0.346861   0.461758  -0.034173   0.004022
    11  C   -0.053480   0.001151   0.334140  -0.034173   5.158987   0.366777
    12  H   -0.001924   0.001257  -0.031239   0.004022   0.366777   0.561035
    13  H    0.004060  -0.000121  -0.034396  -0.004257   0.363593  -0.029192
    14  C    0.001068  -0.000045  -0.034482  -0.004620   0.383754  -0.034282
    15  N   -0.000554   0.000002   0.000858  -0.000547  -0.064977   0.003546
    16  C   -0.000056   0.000000   0.000369  -0.000059   0.007284  -0.000141
    17  H    0.000001   0.000000   0.000001   0.000002  -0.000154   0.000004
    18  N    0.000000   0.000000  -0.000114   0.000008   0.004774   0.000105
    19  H    0.000000   0.000000   0.000002   0.000000  -0.000082  -0.000004
    20  C   -0.000033  -0.000004   0.002735  -0.000096  -0.069924  -0.004644
    21  H   -0.000014   0.000000   0.000049  -0.000001  -0.002568   0.002102
    22  H   -0.034307  -0.003924   0.375372  -0.023185  -0.036983  -0.004661
    23  H    0.000000   0.000000   0.000001  -0.000001   0.000000   0.000000
    24  C    0.000000   0.000000   0.000007  -0.000056   0.000010   0.000000
    25  H    0.000000   0.000000  -0.000011   0.000015   0.000001   0.000000
    26  C    0.000003   0.000000  -0.000141  -0.000124  -0.000384   0.000009
    27  H   -0.000005   0.000000   0.001109  -0.001225  -0.000419   0.000019
    28  H    0.000000   0.000000  -0.000045   0.000092   0.000015   0.000000
    29  S    0.001294  -0.000027  -0.024743   0.025366   0.002220  -0.000038
    30  H    0.000000   0.000000   0.000000  -0.000002   0.000000   0.000000
    31  H    0.000000   0.000000   0.000000   0.000000   0.000000   0.000000
    32  C    0.000000   0.000000   0.000000   0.000000   0.000000   0.000000
    33  H    0.000000   0.000000   0.000000   0.000000   0.000000   0.000000
    34  C    0.000000   0.000000   0.000000   0.000002   0.000000   0.000000
    35  H    0.000000   0.000000   0.000001  -0.000001   0.000000   0.000000
    36  H    0.000000   0.000000   0.000000   0.000000   0.000000   0.000000
    37  C    0.000000   0.000000  -0.000001  -0.000005   0.000000   0.000000
    38  N   -0.000006   0.000000  -0.000008   0.000088  -0.000002   0.000000
    39  C    0.000006   0.000000   0.000000   0.000006   0.000000   0.000000
    40  H    0.000048  -0.000001  -0.000003   0.000003   0.000000   0.000000
    41  N    0.000000   0.000000   0.000000   0.000000   0.000000   0.000000
    42  H    0.000000   0.000000   0.000000   0.000000   0.000000   0.000000
    43  C    0.000000   0.000000   0.000000   0.000000   0.000000   0.000000
    44  H    0.000000   0.000000   0.000000   0.000000   0.000000   0.000000
    45  H    0.000000   0.000000   0.000000   0.000000   0.000000   0.000000
    46  Zn   0.005380  -0.000815  -0.013971   0.024659  -0.007500  -0.000262
             13         14         15         16         17         18
     1  H    0.000000  -0.000007   0.000004   0.000001   0.000000   0.000000
     2  C    0.000003  -0.000087  -0.000057  -0.000003   0.000000   0.000000
     3  H    0.000000   0.000001   0.000002   0.000000   0.000000   0.000000
     4  H    0.000000   0.000001  -0.000001   0.000000   0.000000   0.000000
     5  C    0.000041   0.002536   0.000830   0.000016  -0.000003  -0.000028
     6  O   -0.000019  -0.000028  -0.008728  -0.000354  -0.000046  -0.000008
     7  N    0.004060   0.001068  -0.000554  -0.000056   0.000001   0.000000
     8  H   -0.000121  -0.000045   0.000002   0.000000   0.000000   0.000000
     9  C   -0.034396  -0.034482   0.000858   0.000369   0.000001  -0.000114
    10  H   -0.004257  -0.004620  -0.000547  -0.000059   0.000002   0.000008
    11  C    0.363593   0.383754  -0.064977   0.007284  -0.000154   0.004774
    12  H   -0.029192  -0.034282   0.003546  -0.000141   0.000004   0.000105
    13  H    0.527452  -0.031797  -0.001702   0.000138   0.000002  -0.000021
    14  C   -0.031797   4.676071   0.360863  -0.097135   0.003272  -0.020452
    15  N   -0.001702   0.360863   6.862400   0.422940  -0.039391  -0.066213
    16  C    0.000138  -0.097135   0.422940   4.795437   0.381584   0.377295
    17  H    0.000002   0.003272  -0.039391   0.381584   0.485228  -0.045653
    18  N   -0.000021  -0.020452  -0.066213   0.377295  -0.045653   6.707901
    19  H    0.000002   0.005051   0.004599  -0.027205  -0.000580   0.316299
    20  C   -0.001753   0.544411  -0.043701  -0.102953   0.004320   0.313419
    21  H    0.000010  -0.029231   0.004621   0.005091  -0.000066  -0.043119
    22  H   -0.000215   0.004013   0.000078   0.000008   0.000000   0.000001
    23  H   -0.000001   0.000000   0.000000   0.000000   0.000000   0.000000
    24  C   -0.000032   0.000004   0.000009   0.000000   0.000000   0.000000
    25  H    0.000000   0.000000   0.000000   0.000000   0.000000   0.000000
    26  C    0.000246  -0.000244  -0.000261  -0.000081  -0.000003  -0.000001
    27  H    0.002632   0.000605   0.000867  -0.000067   0.000000  -0.000006
    28  H   -0.000021  -0.000003  -0.000128  -0.000027  -0.000002   0.000001
    29  S   -0.000110  -0.000066  -0.010810  -0.000051  -0.000064   0.000005
    30  H    0.000001   0.000000   0.000000   0.000000   0.000000   0.000000
    31  H    0.000000   0.000000   0.000000   0.000000   0.000000   0.000000
    32  C    0.000000   0.000000   0.000000   0.000003  -0.000013   0.000000
    33  H    0.000000   0.000000   0.000000   0.000000   0.000000   0.000000
    34  C    0.000000  -0.000002  -0.000109  -0.000191   0.000000   0.000002
    35  H    0.000000   0.000001  -0.000063  -0.000006  -0.000001   0.000000
    36  H    0.000000  -0.000008   0.000037   0.000569   0.000412   0.000004
    37  C    0.000000  -0.000007  -0.000258  -0.000284   0.001368  -0.000001
    38  N    0.000000  -0.000050  -0.008198   0.001311   0.002692   0.000047
    39  C    0.000000  -0.000020  -0.000222   0.000134  -0.000152   0.000001
    40  H    0.000000  -0.000004  -0.000049  -0.000017  -0.000014   0.000000
    41  N    0.000000   0.000000   0.000000  -0.000001  -0.000036   0.000000
    42  H    0.000000   0.000000   0.000000   0.000000  -0.000001   0.000000
    43  C    0.000000   0.000000  -0.000002  -0.000027   0.000101   0.000000
    44  H    0.000000   0.000000   0.000000   0.000000   0.000000   0.000000
    45  H    0.000000   0.000000   0.000000   0.000000   0.000000   0.000000
    46  Zn   0.002140  -0.017665   0.169870  -0.025880  -0.003310   0.002104
             19         20         21         22         23         24
     1  H    0.000000   0.000001   0.000000  -0.000002   0.000000   0.000000
     2  C    0.000000   0.000000   0.000000  -0.000196   0.000000   0.000000
     3  H    0.000000   0.000000   0.000000  -0.000022   0.000000   0.000000
     4  H    0.000000   0.000000   0.000000   0.000014   0.000000   0.000000
     5  C    0.000000   0.000003   0.000002   0.003258   0.000000   0.000000
     6  O    0.000000   0.000026   0.000000   0.000341   0.000000   0.000000
     7  N    0.000000  -0.000033  -0.000014  -0.034307   0.000000   0.000000
     8  H    0.000000  -0.000004   0.000000  -0.003924   0.000000   0.000000
     9  C    0.000002   0.002735   0.000049   0.375372   0.000001   0.000007
    10  H    0.000000  -0.000096  -0.000001  -0.023185  -0.000001  -0.000056
    11  C   -0.000082  -0.069924  -0.002568  -0.036983   0.000000   0.000010
    12  H   -0.000004  -0.004644   0.002102  -0.004661   0.000000   0.000000
    13  H    0.000002  -0.001753   0.000010  -0.000215  -0.000001  -0.000032
    14  C    0.005051   0.544411  -0.029231   0.004013   0.000000   0.000004
    15  N    0.004599  -0.043701   0.004621   0.000078   0.000000   0.000009
    16  C   -0.027205  -0.102953   0.005091   0.000008   0.000000   0.000000
    17  H   -0.000580   0.004320  -0.000066   0.000000   0.000000   0.000000
    18  N    0.316299   0.313419  -0.043119   0.000001   0.000000   0.000000
    19  H    0.352556  -0.023003  -0.001536   0.000000   0.000000   0.000000
    20  C   -0.023003   5.018677   0.372103  -0.000110   0.000000   0.000000
    21  H   -0.001536   0.372103   0.493081   0.000000   0.000000   0.000000
    22  H    0.000000  -0.000110   0.000000   0.526544   0.000000   0.000001
    23  H    0.000000   0.000000   0.000000   0.000000   0.575515   0.363844
    24  C    0.000000   0.000000   0.000000   0.000001   0.363844   5.090019
    25  H    0.000000   0.000000   0.000000   0.000000  -0.029758   0.380277
    26  C    0.000000  -0.000010   0.000000   0.000000  -0.029504   0.352457
    27  H    0.000000   0.000031  -0.000001  -0.000040  -0.002427  -0.036528
    28  H    0.000000  -0.000001   0.000000   0.000000  -0.002218  -0.038204
    29  S    0.000001  -0.000025   0.000001   0.000246   0.005240  -0.052521
    30  H    0.000000   0.000000   0.000000   0.000000  -0.029305   0.382334
    31  H    0.000000   0.000000   0.000000   0.000000   0.000000   0.000000
    32  C    0.000000   0.000000   0.000000   0.000000   0.000000   0.000000
    33  H    0.000000   0.000000   0.000000   0.000000   0.000000   0.000000
    34  C    0.000000   0.000000   0.000000   0.000000   0.000000   0.000003
    35  H    0.000000   0.000000   0.000000   0.000000  -0.000001  -0.000044
    36  H    0.000000  -0.000003   0.000000   0.000000   0.000000   0.000000
    37  C    0.000000   0.000000   0.000000   0.000000   0.000000   0.000000
    38  N    0.000001  -0.000003   0.000000   0.000000   0.000000  -0.000001
    39  C    0.000000   0.000001   0.000000   0.000000   0.000000   0.000000
    40  H    0.000000   0.000000   0.000000   0.000000   0.000000   0.000000
    41  N    0.000000   0.000000   0.000000   0.000000   0.000000   0.000000
    42  H    0.000000   0.000000   0.000000   0.000000   0.000000   0.000000
    43  C    0.000000   0.000000   0.000000   0.000000   0.000000   0.000000
    44  H    0.000000   0.000000   0.000000   0.000000   0.000000   0.000000
    45  H    0.000000   0.000000   0.000000   0.000000   0.000000   0.000000
    46  Zn   0.000184   0.002897   0.000039   0.001364  -0.000352  -0.003501
             25         26         27         28         29         30
     1  H    0.000000   0.000000   0.000000   0.000000  -0.000001   0.000000
     2  C    0.000000   0.000000   0.000000   0.000000  -0.000040   0.000000
     3  H    0.000000   0.000000   0.000000   0.000000   0.000001   0.000000
     4  H    0.000000   0.000000   0.000000   0.000000  -0.000001   0.000000
     5  C    0.000000  -0.000001   0.000003  -0.000001  -0.000811   0.000000
     6  O    0.000000   0.000023   0.000000  -0.000002  -0.007601   0.000000
     7  N    0.000000   0.000003  -0.000005   0.000000   0.001294   0.000000
     8  H    0.000000   0.000000   0.000000   0.000000  -0.000027   0.000000
[...]
 5,0.00001835,-0.00000139,0.00000810,0.00000338,-0.00001231,-0.00002030
 ,-0.00002974,-0.00008850,-0.00005875,0.00002088,0.00001070,-0.00000169
 ,0.00001605,0.00012846,0.00012877,-0.00018827,0.00000410,-0.00000337,0
 .00001386,-0.00001245,-0.00005470,0.00003939,-0.00025648,-0.00001236,-
 0.00033669,0.00000495,0.00000225,-0.00000641,-0.00019622,-0.00049981,0
 .00038286,0.00008524,-0.00023036,-0.00002059,0.00022060,-0.00028713,-0
 .00052072,-0.00893257,-0.00108827,-0.00745542,0.00050251,0.00028915,0.
 00146880,0.00045916,0.00046565,-0.00031263,-0.30071724,0.02228130,-0.1
 4815396,-0.01814323,0.07263422,-0.01394318,0.00208876,-0.00431692,-0.0
 1100113,-0.00327267,0.00280849,-0.00351483,-0.11655570,-0.03854058,-0.
 04177017,-0.00176208,-0.02431737,0.00062633,0.58104137,0.00000464,0.00
 005121,0.00005767,-0.00001235,-0.00012477,-0.00006348,0.00001719,-0.00
 005616,0.00000350,0.00002861,0.00002928,-0.00001185,-0.00089543,0.0014
 7820,-0.00001878,0.00090892,-0.00201856,0.00049857,0.00065798,-0.00041
 184,0.00021329,0.00004733,0.00004700,0.00002933,-0.00015274,-0.0001186
 6,-0.00012139,0.00001210,-0.00001863,-0.00003227,-0.00002689,0.0000275
 7,0.00003502,0.00000276,-0.00001114,-0.00000830,0.00002382,0.00001862,
 -0.00000342,-0.00004474,0.00012933,-0.00007206,0.00038707,0.00004807,0
 .00008142,-0.00011225,-0.00011034,0.00030072,-0.00003605,-0.00003379,0
 .00002745,0.00011399,0.00002459,-0.00015679,-0.00000722,-0.00003770,0.
 00003942,0.00004686,-0.00006434,0.00000307,-0.00000719,-0.00000352,-0.
 00001458,0.00003475,0.00001027,0.00002138,0.00001781,0.00001068,0.0000
 2841,0.00005874,0.00005879,-0.00003274,-0.00000803,-0.00000556,-0.0000
 1550,-0.00013421,-0.00013392,0.00008362,0.00000084,0.00001659,-0.00001
 011,0.00006180,0.00005449,-0.00000936,0.00004883,0.00016963,0.00003455
 ,-0.00000923,-0.00000369,0.00000448,0.00011518,-0.00000591,-0.00037761
 ,-0.00087440,0.00128088,-0.00044990,-0.00029194,-0.00007038,0.00032159
 ,-0.01465388,0.00758066,-0.00874824,-0.00178307,-0.00078286,-0.0010532
 6,-0.00175964,-0.00066543,-0.00147599,0.03228044,-0.10851651,0.0153588
 9,0.01498331,-0.03066348,0.00840699,0.04106735,-0.09264201,0.01635423,
 0.00089803,0.00135450,0.00064397,-0.04854249,-0.27056957,-0.04599018,0
 .00053949,0.00690398,0.00112307,-0.15977748,0.75069036,-0.00001294,0.0
 0001859,0.00001485,-0.00000130,0.00000378,-0.00000489,0.00001480,-0.00
 000056,0.00001065,0.00000042,0.00002258,-0.00000754,-0.00010557,0.0000
 6640,-0.00006459,0.00015361,0.00016115,0.00000272,0.00006791,-0.000005
 71,0.00004174,-0.00000545,0.00000055,0.00000617,-0.00001866,-0.0000299
 8,-0.00002407,0.00001034,-0.00000976,0.00000667,0.00000396,0.00000031,
 0.00000779,-0.00000317,0.00000374,-0.00000242,0.00000729,0.00000351,-0
 .00000241,0.00002604,-0.00012738,0.00010194,-0.00031816,0.00018103,0.0
 0003562,0.00001013,0.00013454,-0.00021759,-0.00011082,0.00015730,-0.00
 001348,-0.00007668,-0.00000566,0.00005949,-0.00002006,0.00001711,-0.00
 001187,-0.00006370,0.00004225,0.00002365,-0.00000534,0.00000341,0.0000
 1681,0.00000399,0.00000614,0.00000348,-0.00000563,-0.00000454,-0.00000
 503,-0.00001118,-0.00000633,0.00000287,0.00000111,0.00000029,0.0000008
 0,0.00000084,-0.00001602,-0.00002714,0.00000567,0.00001037,0.00000081,
 0.00002085,0.00000096,-0.00000566,0.00000699,0.00004884,-0.00010151,0.
 00000045,0.00000152,0.00000157,-0.00020163,-0.00017672,0.00014897,-0.0
 0033736,-0.00003377,0.00012858,0.00023383,-0.00031930,-0.00023629,-0.0
 0876662,-0.00022516,-0.00336920,-0.00051851,-0.00028755,0.00006386,0.0
 0095128,0.00064208,0.00021290,-0.14473299,0.01026818,-0.16107016,-0.01
 888881,0.04268370,0.00608173,-0.00735130,-0.01027449,0.01023887,-0.004
 02718,0.00177081,0.00104632,-0.04332671,-0.04277556,-0.08116344,0.0028
 8306,-0.01369343,-0.00593503,0.28432790,-0.05073596,0.28856678,-0.0000
 0255,0.00000772,0.00000500,-0.00000786,0.00001545,-0.00000203,0.000005
 32,0.00000503,0.00000753,-0.00000136,0.00000262,-0.00000299,0.00005789
 ,-0.00005337,-0.00000645,-0.00004758,0.00025519,0.00005976,-0.00003655
 ,0.00002537,-0.00000574,-0.00000145,-0.00000154,-0.00000498,0.00001653
 ,0.00000414,-0.00000197,0.00000001,-0.00000539,0.00000261,0.00000479,0
 .00000331,-0.00000397,-0.00000170,0.00000057,0.00000195,0.00000026,-0.
 00000223,0.00000264,0.00001845,-0.00003897,0.00001644,-0.00007258,0.00
 001943,0.00000016,0.00001066,0.00003946,-0.00007767,0.00000561,0.00002
 244,-0.00001377,-0.00003918,-0.00000380,0.00004422,-0.00000867,0.00001
 481,-0.00000607,-0.00001655,0.00000742,0.00001090,-0.00000046,0.000000
 41,0.00000500,-0.00000316,-0.00000022,0.00000039,-0.00000759,-0.000005
 38,-0.00001379,-0.00003238,-0.00002319,0.00001499,0.00000496,-0.000001
 70,0.00000687,0.00003983,0.00006517,-0.00006054,-0.00000919,-0.0000085
 3,0.00000331,-0.00002011,-0.00001890,0.00000831,-0.00007414,-0.0000589
 7,-0.00004154,0.00000435,0.00000453,-0.00000340,0.00012636,-0.00007420
 ,-0.00013710,0.00006497,0.00028530,-0.00040255,-0.00035451,-0.00057190
 ,0.00027019,-0.00029914,0.00028134,0.00154394,0.00020710,0.00005448,0.
 00005132,-0.00008830,-0.00015405,-0.00020381,-0.00108276,0.01744464,0.
 00107375,-0.00225339,0.00306627,-0.00560024,-0.00203438,-0.00321135,-0
 .00309289,0.00119883,-0.00024409,-0.00050587,0.00928605,-0.01511036,0.
 00732025,-0.00003300,0.00066176,0.00069891,-0.13556729,0.13829836,-0.0
 5999013,0.13027103,-0.00000310,0.00000434,0.00000498,-0.00000402,0.000
 00091,-0.00000128,0.00000289,0.00000054,0.00000365,0.00000057,0.000002
 52,-0.00000315,-0.00000073,0.00003135,0.00001640,0.00003393,0.00000393
 ,0.00003975,0.00001470,-0.00000812,0.00000135,0.00000251,-0.00000065,0
 .00000043,-0.00000451,-0.00000411,-0.00000401,0.00000057,-0.00000421,-
 0.00000153,0.00000013,-0.00000083,0.00000308,-0.00000087,0.00000127,-0
 .00000023,0.00000195,0.00000068,-0.00000152,-0.00000086,-0.00000664,0.
 00000961,-0.00001687,0.00001907,-0.00000389,0.00001386,-0.00000757,-0.
 00000725,0.00001336,-0.00000083,-0.00000073,-0.00000807,0.00000112,0.0
 0000136,0.00000410,0.00000199,-0.00000121,-0.00000643,0.00000755,-0.00
 000226,-0.00000016,0.00000065,0.00000070,0.00000104,0.00000181,0.00000
 030,-0.00000358,-0.00000208,-0.00000384,-0.00000717,-0.00000389,0.0000
 0505,0.00000124,-0.00000021,0.00000045,0.00001458,0.00002160,-0.000005
 21,-0.00000497,-0.00000336,0.00000004,-0.00000199,-0.00000345,0.000002
 27,-0.00002763,-0.00000195,-0.00001147,0.00000228,0.00000147,-0.000000
 64,-0.00020402,-0.00012503,-0.00018533,-0.00047643,-0.00028825,-0.0004
 2007,-0.00030614,-0.00021668,-0.00013272,0.00018433,-0.00010453,0.0002
 9074,0.00009567,-0.00008177,0.00002117,0.00002492,-0.00009730,0.000023
 58,-0.00020335,0.00541352,0.00046915,-0.00113794,0.00166313,-0.0012575
 1,-0.00328722,-0.00260069,-0.00240030,0.00085690,-0.00016234,0.0003259
 9,0.01508025,-0.01834161,0.00834963,-0.00004293,0.00020943,0.00009154,
 0.13002686,-0.26201869,0.06268763,-0.14071046,0.27669166,-0.00000504,0
 .00000091,0.00000316,-0.00000413,-0.00000189,0.00000446,0.00000295,0.0
 0000035,0.00000245,0.00000026,0.00000562,-0.00000151,0.00002468,-0.000
 01291,0.00000458,0.00008464,0.00004813,-0.00005804,0.00000559,-0.00000
 151,-0.00000771,-0.00000403,-0.00000539,0.00000715,-0.00000683,-0.0000
 0639,-0.00000010,-0.00000278,0.00000713,0.00001000,-0.00000001,-0.0000
 0820,0.00000921,0.00000071,0.00000252,-0.00000397,-0.00000195,0.000003
 95,-0.00000615,-0.00000624,-0.00002919,0.00004049,-0.00012212,0.000054
 06,-0.00006553,0.00002242,-0.00000203,-0.00002625,0.00001448,0.0000135
 2,0.00001380,-0.00001233,0.00000325,-0.00001193,0.00000959,0.00000058,
 0.00000668,-0.00001426,0.00001490,0.00000250,0.00000019,0.00000288,0.0
 0000600,0.00000142,0.00000369,-0.00000121,-0.00000108,0.00000073,-0.00
 000266,-0.00000875,-0.00000161,0.00000515,0.00000112,-0.00000224,0.000
 00170,0.00000656,0.00000694,-0.00000963,0.00001196,-0.00000193,0.00000
 173,-0.00000981,-0.00000188,0.00000595,0.00002555,-0.00002707,-0.00003
 132,0.00000199,-0.00000102,-0.00000524,0.00005820,-0.00048106,-0.00053
 712,-0.00043604,0.00010146,0.00042133,0.00005263,0.00009590,0.00006090
 ,0.00159670,0.00050051,-0.00153965,-0.00031548,-0.00017424,-0.00008746
 ,0.00023866,0.00009470,0.00024693,-0.00047597,0.01146310,0.00030513,-0
 .00562438,0.00164305,0.00302024,-0.00315913,-0.00245645,0.00035698,-0.
 00038453,-0.00023896,0.00169860,0.00956195,-0.01047127,0.00099600,0.00
 061915,0.00048413,-0.00067211,-0.06050159,0.06748968,-0.05544363,0.058
 39843,-0.06798230,0.05089051,-0.00000035,0.00000110,0.00000134,-0.0000
 0129,-0.00000225,-0.00000181,0.00000140,-0.00000142,0.00000003,0.00000
 003,0.00000156,-0.00000097,-0.00001866,0.00003729,-0.00000319,0.000012
 65,-0.00003970,0.00000584,0.00001041,-0.00001006,0.00000800,0.00000058
 ,0.00000292,-0.00000114,0.00000178,0.00000068,-0.00000391,-0.00000105,
 0.00000129,-0.00000118,-0.00000009,0.00000442,-0.00000219,0.00000034,-
 0.00000211,0.00000022,-0.00000064,0.00000028,0.00000143,0.00000135,0.0
 0000352,-0.00001153,0.00000375,-0.00001022,0.00000069,-0.00001319,0.00
 000306,0.00000371,0.00000538,0.00000955,0.00001051,-0.00000407,-0.0000
 0439,0.00000108,-0.00000348,0.00000515,0.00000560,0.00000394,-0.000006
 70,0.00000700,0.00000013,0.00000094,0.00000080,-0.00000030,-0.00000173
 ,0.00000111,0.00000155,0.00000273,0.00000065,0.00001837,-0.00001836,-0
 .00000945,-0.00000421,0.00000446,0.00000849,-0.00000876,0.00001939,-0.
 00001710,-0.00000155,0.00000279,0.00000556,0.00000129,-0.00001622,-0.0
 0001024,0.00000556,-0.00000573,0.00004355,-0.00000672,-0.00000033,0.00
 000963,-0.01775937,-0.01876243,-0.01527202,-0.15402965,-0.10751612,-0.
 07947783,-0.00057690,0.00068507,0.00027517,0.00803533,0.00933721,0.007
 18485,0.00032410,-0.00071261,0.00014488,0.00077229,-0.00050917,0.00030
 475,-0.00098839,0.00246107,-0.00063623,0.00076644,0.00075505,0.0002147
 3,-0.00009635,0.00001554,-0.00003995,0.00004015,0.00003289,0.00010479,
 0.00031956,0.00010760,0.00002558,0.00000914,0.00002271,0.00000664,-0.0
 0030084,0.00011682,-0.00013204,0.00014689,-0.00004221,0.00033373,0.163
 33074,-0.00000362,0.00000573,0.00000734,0.00000228,-0.00000935,-0.0000
 0517,0.00000412,-0.00000548,0.00000152,0.00000124,0.00000616,-0.000004
 15,-0.00012264,0.00014622,-0.00002570,0.00008928,-0.00017115,0.0000501
 3,0.00008494,-0.00003376,0.00003677,0.00000254,0.00000592,0.00000285,-
 0.00002386,-0.00001909,-0.00001622,0.00000246,-0.00000648,-0.00000879,
 -0.00000499,0.00000357,-0.00000302,0.00000040,-0.00000138,0.00000160,0
 .00000664,-0.00000136,0.00000497,-0.00000076,0.00001891,-0.00003037,0.
 00008671,-0.00000983,0.00002948,-0.00004538,0.00001417,0.00002574,-0.0
 0004123,-0.00001435,0.00001584,0.00002815,0.00000195,-0.00000436,-0.00
 001082,-0.00001581,-0.00000160,0.00002257,-0.00002186,0.00000409,-0.00
 000135,-0.00000446,-0.00000399,0.00000409,0.,0.00000327,0.00001794,0.0
 0000229,0.00002716,0.00005502,0.00004303,-0.00002796,-0.00001241,0.000
 01324,-0.00001735,-0.00010151,-0.00018117,0.00008765,0.00001007,0.0000
 4670,-0.00001132,0.00004690,0.00004273,-0.00005399,0.00008998,0.000088
 00,0.00010476,-0.00001470,-0.00001323,0.00002385,0.00217183,0.00260649
 ,0.00270459,-0.10554021,-0.15553793,-0.07965405,0.00666977,0.00649717,
 0.00375763,-0.01991810,-0.02035717,-0.01479280,-0.00053451,0.00112876,
 0.00025907,0.00003855,0.00128699,-0.00042993,0.00444145,-0.00406809,0.
 00227638,-0.00123358,-0.00135848,-0.00097244,0.00016263,-0.00063306,0.
 00008741,-0.00017977,-0.00002453,-0.00009092,-0.00026882,-0.00011346,-
 0.00022781,0.00004671,-0.00002770,0.00002879,0.00051572,0.00010793,0.0
 0033110,-0.00013655,0.00002455,-0.00004072,0.11399526,0.17030025,-0.00
 000097,0.00000129,0.00000124,-0.00000056,-0.00000390,-0.00000132,0.000
 00065,-0.00000203,0.00000030,0.00000049,0.00000122,-0.00000065,-0.0000
 2969,0.00004192,-0.00000078,0.00001926,-0.00004933,-0.00000676,0.00002
 248,-0.00001144,0.00000279,-0.00000159,0.00000115,0.00000043,-0.000007
 03,-0.00000480,-0.00000123,-0.00000153,0.00001150,0.00000473,-0.000001
 39,-0.00000347,0.00000424,0.00000140,-0.00000123,-0.00000290,-0.000003
 44,0.00000246,-0.00000135,-0.00000831,0.00000866,0.00000135,0.00002912
 ,-0.00000053,-0.00002287,-0.00001641,-0.00000303,0.00002424,-0.0000216
 9,-0.00000896,-0.00000625,0.00002427,0.00000928,-0.00001658,-0.0000062
 7,-0.00001443,-0.00000086,0.00000859,-0.00000742,0.00000092,-0.0000010
 2,-0.00000194,-0.00000120,0.00000190,0.00000039,0.00000002,0.00000244,
 0.00000435,0.00000136,-0.00001583,0.00000207,0.00000655,0.00000524,-0.
 00000749,-0.00000061,-0.00001264,0.00000797,-0.00001362,0.00001082,-0.
 00001824,0.00000257,-0.00003087,0.00000658,0.00001849,0.00003456,-0.00
 005861,0.00000194,0.00000597,0.00000292,-0.00001714,0.00871260,0.01014
 812,0.00714646,-0.07931828,-0.08090334,-0.10918318,-0.02050221,-0.0207
 2438,-0.01410442,0.00374390,0.00353727,0.00150153,0.00048824,-0.000063
 23,0.00043421,0.00008087,-0.00036171,-0.00006155,-0.00037859,0.0010509
 2,0.00033208,-0.00002453,0.00024110,0.00054501,0.00001889,-0.00003610,
 -0.00005911,0.00008437,0.00001950,-0.00006591,-0.00000446,0.00003506,0
 .00026205,0.00001099,0.00001159,0.00000340,-0.00011695,0.00013914,-0.0
 0010756,0.00031653,0.00001826,-0.00014923,0.08693968,0.08693665,0.1134
 8852,0.00003004,-0.00009733,-0.00024006,-0.00023856,0.00121176,-0.0003
 7608,0.00009906,0.00043858,0.00009080,-0.00012669,-0.00012194,0.000060
 23,0.01009919,-0.00798614,0.00286393,-0.01295493,-0.00458078,-0.002298
 87,-0.00698875,0.00265631,-0.00215019,-0.00019573,-0.00012167,-0.00065
 064,0.00195700,0.00336725,0.00220377,0.00077748,0.00134603,-0.00137346
 ,-0.00044192,0.00024609,-0.00119622,0.00030540,-0.00051983,0.00036612,
 -0.00049403,-0.00038323,0.00028517,-0.00748570,0.00582537,-0.00117344,
 -0.03808225,0.00506971,0.01990207,-0.00228382,-0.00545582,0.01135470,0
 .00054035,0.00023120,-0.00059527,0.00597081,-0.00058371,-0.00580987,0.
 00064455,-0.00057356,0.00055504,0.00207630,-0.00032460,-0.00150971,0.0
 0037983,0.00026431,-0.00048111,-0.00023340,-0.00107124,-0.00035269,0.0
 0002941,-0.00031923,-0.00080968,-0.00277125,-0.00122643,0.00055169,0.0
 0003415,0.00009451,0.00019252,0.00098787,-0.00046673,-0.00724154,-0.00
 128793,-0.00011699,-0.00075959,0.00009195,-0.00049154,-0.00028243,-0.0
 0622782,-0.00186614,0.00645424,0.00012746,-0.00003078,0.00028542,-0.00
 004803,0.00025683,0.00012393,-0.00100662,-0.00023727,-0.00028978,0.000
 15457,0.00009474,0.00001429,0.00139061,0.00051777,-0.00021077,0.000228
 23,-0.00036946,0.00020080,-0.00089689,-0.00067864,0.00035193,0.0009679
 8,0.00741390,0.00150430,-0.03322588,0.01444168,-0.02022362,-0.01063494
 ,-0.00025884,-0.00720238,-0.00016314,-0.00027752,-0.00018550,0.0041303
 7,-0.00292995,0.00192462,-0.00006967,-0.00042622,-0.00060302,0.0018398
 5,-0.00164376,0.00030146,0.00062592,0.00012500,0.00002294,0.00000271,-
 0.00040242,-0.00005901,0.09236688,-0.00024739,0.00022557,-0.00007849,-
 0.00044125,0.00323366,0.00085311,0.00041322,0.00107167,0.00064211,-0.0
 0036624,0.00013318,-0.00000888,0.01424691,-0.02612079,0.00060924,-0.01
 491737,-0.01873332,-0.00532021,-0.00928650,0.00464946,-0.00346792,-0.0
 0038873,-0.00050792,-0.00086650,0.00414273,0.00002244,0.00056350,0.000
 76000,-0.00059924,0.00370344,0.00094487,0.00010445,-0.00082252,-0.0002
 6243,-0.00011379,0.00027013,-0.00066635,-0.00027877,0.00020344,0.00312
 924,0.00055393,-0.00447059,0.00732488,-0.01151688,-0.00269126,-0.00341
 551,0.00146204,0.00082088,-0.00057008,-0.00019556,0.00090319,-0.000122
 26,-0.00043488,0.00231859,0.00016419,0.00057173,0.00013050,0.00152120,
 -0.00077747,0.00026448,0.00029242,0.00029512,-0.00005395,-0.00118315,0
 .00034325,0.00004761,0.00005262,0.00035912,-0.00015353,-0.00053772,-0.
 00081016,0.00009960,-0.00014584,0.00009431,0.00008998,-0.00074974,-0.0
 0159906,-0.00377166,0.00047880,0.00043676,0.00002216,-0.00032647,-0.00
 055833,-0.00076210,-0.00296454,-0.01003435,-0.01428263,-0.00003785,-0.
 00001142,0.00012998,-0.00023175,0.00026507,-0.00007373,-0.00002215,-0.
 00061299,-0.00013449,-0.00021379,0.00032496,-0.00019475,0.00022373,0.0
 0078717,0.00039482,0.00048928,-0.00091221,-0.00085537,-0.00058498,-0.0
 0063120,0.00064871,0.00579197,-0.00565074,0.00404573,0.01338790,-0.021
 32346,0.01085567,0.00255358,0.00727273,0.00209713,-0.00149119,0.000220
 48,-0.00126313,-0.00568964,0.00041213,-0.00352407,-0.00003375,0.000826
 41,0.00013366,-0.00086303,-0.00100518,-0.00053999,-0.00015008,-0.00001
 831,-0.00009341,0.00003148,0.00023840,0.00004625,-0.01003924,0.0785419
 8,-0.00006261,-0.00001629,-0.00011133,-0.00021912,-0.00017629,0.000793
 88,-0.00013050,0.00004411,0.00008891,-0.00012232,-0.00006773,0.0000106
 4,0.00356426,-0.00577173,0.00062241,-0.00375721,-0.00615463,-0.0083578
 4,-0.00228547,0.00107457,-0.00209209,-0.00045489,-0.00038452,-0.000257
 15,-0.00044863,0.00151484,0.00212629,-0.00163197,0.00401686,0.00021796
 ,-0.00027472,-0.00129586,0.00064221,0.00034569,0.00027931,-0.00069917,
 -0.00066612,0.00040591,-0.00060861,0.00156721,-0.00367871,0.00499080,0
 .02101574,-0.00253993,-0.02534014,0.00750839,0.00101399,-0.00844334,0.
 00029630,0.00035494,-0.00061733,-0.00252806,0.00173875,0.00111085,0.00
 026793,0.00049439,-0.00014666,-0.00198335,0.00158862,0.00081404,-0.000
 06041,0.00009410,0.00050660,0.00037631,-0.00040437,-0.00051006,0.00066
 524,0.00046999,0.00104245,0.00189742,0.00101250,-0.00084335,-0.0002486
 6,-0.00015340,-0.00001852,-0.00585369,-0.00270231,0.00045505,0.0014702
 5,0.00020258,-0.00006794,0.00123343,0.00113006,0.00006952,-0.00069358,
 -0.01967943,-0.08118226,-0.00021854,-0.00020251,-0.00009116,0.00009189
 ,-0.00000206,0.00017294,-0.00037690,-0.00014204,-0.00100423,-0.0000410
 9,0.00034897,-0.00013993,0.00014808,0.00043244,0.00100198,0.00013073,-
 0.00139001,-0.00010574,0.00017387,0.00007316,0.00008126,0.00155312,0.0
 0579629,0.00197863,-0.02242313,0.01485442,-0.02908926,-0.00783095,-0.0
 0090337,-0.00512413,-0.00011015,-0.00015275,-0.00005068,0.00279093,-0.
 00199157,0.00234825,-0.00040815,-0.00044213,0.00039696,0.00098365,-0.0
 0189774,0.00098789,0.00031410,0.00005931,0.00053878,-0.00002926,-0.000
 38599,0.00004065,0.00646496,0.01353527,0.14386198\\-0.00000003,-0.0000
 0064,0.00000165,0.00000198,-0.00000037,-0.00000119,-0.00000004,-0.0000
 0017,0.00000139,-0.00000102,-0.00000030,0.00000078,-0.00000246,0.00000
 166,0.00000181,0.00000465,-0.00000007,-0.00000619,0.00000120,0.0000009
 8,-0.00000090,-0.00000030,-0.00000053,0.00000105,0.00000204,0.00000042
 ,-0.00000103,0.00000032,0.00000002,0.00000114,-0.00000009,-0.00000136,
 -0.00000070,0.00000076,0.00000079,0.00000048,-0.00000025,0.00000096,-0
 .00000021,-0.00000515,0.00000373,0.00000122,0.00000441,-0.00000230,-0.
 00000211,-0.00000429,0.00000007,0.00000323,-0.00000014,-0.00000013,-0.
 00000038,0.00000421,-0.00000195,-0.00000157,-0.00000046,0.00000058,0.0
 0000009,0.00000005,-0.00000102,-0.00000030,0.00000020,0.00000074,-0.00
 000052,0.00000061,-0.00000070,-0.00000042,0.,0.00000016,-0.00000020,0.
 00000114,0.00000084,-0.00000151,0.00000075,0.00000008,0.00000027,-0.00
 000054,-0.00000097,0.00000078,-0.00000014,0.00000076,-0.00000066,0.000
 00037,0.00000082,0.00000041,-0.00000118,0.00000452,0.00000008,-0.00000
 005,-0.00000040,-0.00000038,-0.00000062,-0.00000004,0.00000049,0.00000
 005,-0.00000153,-0.00000153,-0.00000028,-0.00000028,0.00000060,-0.0000
 0189,0.00000062,-0.00000184,0.00000037,-0.00000007,-0.00000006,-0.0000
 0009,0.00000087,-0.00000085,0.00000164,-0.00000427,0.00000506,-0.00000
 459,-0.00000288,-0.00000152,0.00000246,-0.00000113,0.00000499,-0.00000
 056,-0.00000021,0.00000069,-0.00000193,0.00000430,-0.00000233,-0.00000
 009,-0.00000084,0.00000044,0.00000096,-0.00000022,-0.00000251,-0.00000
 118,-0.00000084,0.00000040,-0.00000064,0.00000035,0.00000039,-0.000000
 13,-0.00000008,0.00000146\\\@


 Until you make peace with who you are,
 you'll never be content with what you have.
                           -- Doris Mortman

 File lengths (MBytes):  RWF=    887 Int=      0 D2E=      0 Chk=     18 Scr=      1
 Normal termination of Gaussian 03 at Tue Nov  3 02:29:18 2015.
