 Entering Gaussian System, Link 0=g03
 Initial command:
 /apps/gaussian/g03/amd64/g03/l1.exe /scratch/lfs/pengfei/pymsmt/testcases2/1E67/mk/Gau-33014.inp -scrdir=/scratch/lfs/pengfei/pymsmt/testcases2/1E67/mk/
 Entering Link 1 = /apps/gaussian/g03/amd64/g03/l1.exe PID=     33091.
  
 Copyright (c) 1988,1990,1992,1993,1995,1998,2003,2004,2007, Gaussian, Inc.
                  All Rights Reserved.
  
 This is the Gaussian(R) 03 program.  It is based on the
 the Gaussian(R) 98 system (copyright 1998, Gaussian, Inc.),
 the Gaussian(R) 94 system (copyright 1995, Gaussian, Inc.),
 the Gaussian 92(TM) system (copyright 1992, Gaussian, Inc.),
 the Gaussian 90(TM) system (copyright 1990, Gaussian, Inc.),
 the Gaussian 88(TM) system (copyright 1988, Gaussian, Inc.),
 the Gaussian 86(TM) system (copyright 1986, Carnegie Mellon
 University), and the Gaussian 82(TM) system (copyright 1983,
 Carnegie Mellon University). Gaussian is a federally registered
 trademark of Gaussian, Inc.
  
 This software contains proprietary and confidential information,
 including trade secrets, belonging to Gaussian, Inc.
  
 This software is provided under written license and may be
 used, copied, transmitted, or stored only in accord with that
 written license.
  
 The following legend is applicable only to US Government
 contracts under FAR:
  
                    RESTRICTED RIGHTS LEGEND
  
 Use, reproduction and disclosure by the US Government is
 subject to restrictions as set forth in subparagraphs (a)
 and (c) of the Commercial Computer Software - Restricted
 Rights clause in FAR 52.227-19.
  
 Gaussian, Inc.
 340 Quinnipiac St., Bldg. 40, Wallingford CT 06492
  
  
 ---------------------------------------------------------------
 Warning -- This program may not be used in any manner that
 competes with the business of Gaussian, Inc. or will provide
 assistance to any competitor of Gaussian, Inc.  The licensee
 of this program is prohibited from giving any competitor of
 Gaussian, Inc. access to this program.  By using this program,
 the user acknowledges that Gaussian, Inc. is engaged in the
 business of creating and licensing software in the field of
 computational chemistry and represents and warrants to the
 licensee that it is not a competitor of Gaussian, Inc. and that
 it will not use this program in any manner prohibited above.
 ---------------------------------------------------------------
  

 Cite this work as:
 Gaussian 03, Revision E.01,
 M. J. Frisch, G. W. Trucks, H. B. Schlegel, G. E. Scuseria, 
 M. A. Robb, J. R. Cheeseman, J. A. Montgomery, Jr., T. Vreven, 
 K. N. Kudin, J. C. Burant, J. M. Millam, S. S. Iyengar, J. Tomasi, 
 V. Barone, B. Mennucci, M. Cossi, G. Scalmani, N. Rega, 
 G. A. Petersson, H. Nakatsuji, M. Hada, M. Ehara, K. Toyota, 
 R. Fukuda, J. Hasegawa, M. Ishida, T. Nakajima, Y. Honda, O. Kitao, 
 H. Nakai, M. Klene, X. Li, J. E. Knox, H. P. Hratchian, J. B. Cross, 
 V. Bakken, C. Adamo, J. Jaramillo, R. Gomperts, R. E. Stratmann, 
 O. Yazyev, A. J. Austin, R. Cammi, C. Pomelli, J. W. Ochterski, 
 P. Y. Ayala, K. Morokuma, G. A. Voth, P. Salvador, J. J. Dannenberg, 
 V. G. Zakrzewski, S. Dapprich, A. D. Daniels, M. C. Strain, 
 O. Farkas, D. K. Malick, A. D. Rabuck, K. Raghavachari, 
 J. B. Foresman, J. V. Ortiz, Q. Cui, A. G. Baboul, S. Clifford, 
 J. Cioslowski, B. B. Stefanov, G. Liu, A. Liashenko, P. Piskorz, 
 I. Komaromi, R. L. Martin, D. J. Fox, T. Keith, M. A. Al-Laham, 
 C. Y. Peng, A. Nanayakkara, M. Challacombe, P. M. W. Gill, 
 B. Johnson, W. Chen, M. W. Wong, C. Gonzalez, and J. A. Pople, 
 Gaussian, Inc., Wallingford CT, 2004.
 
 ******************************************
 Gaussian 03:  AM64L-G03RevE.01 11-Sep-2007
                 2-Nov-2015 
 ******************************************
 %Chk=1E67_large_mk.chk
 %Mem=6000MB
 %NProcShared=12
 Will use up to   12 processors via shared memory.
 ----------------------------------------------------------------------
 #N B3LYP/6-31G* Integral=(Grid=UltraFine) Pop(MK,ReadRadii) SCF=XQC IO
 p(6/33=2)
 ----------------------------------------------------------------------
 1/38=1/1;
 2/17=6,18=5,40=1/2;
 3/5=1,6=6,7=1,11=2,16=1,25=1,30=1,74=-5,75=5/1,2,3;
 4//1;
 5/5=2,8=3,13=1,32=1,38=5/2,8;
 6/7=2,8=2,9=2,10=2,15=8,20=101,28=1,33=2/1,2;
 99/5=1,9=1/99;
 ---
 CLR
 ---
 Symbolic Z-matrix:
 Charge =  1 Multiplicity = 1
 H                     15.718    55.854    36.091 
 C                     14.811    55.265    35.954 
 H                     15.063    54.217    35.793 
 H                     14.238    55.367    36.875 
 C                     14.047    55.763    34.73 
 O                     12.816    55.813    34.742 
 N                     14.659    56.133    33.607 
 H                     15.666    56.098    33.546 
 C                     13.906    56.582    32.425 
 H                     13.308    57.45     32.702 
 H                     14.614    56.901    31.661 
 C                     12.994    55.519    31.813 
 O                     13.29     54.311    31.869 
 N                     11.851    55.931    31.267 
 H                     11.6      56.909    31.263 
 C                     10.979    54.97     30.599 
 H                     11.548    54.125    30.332 
 C                     9.774     54.539    31.453 
 H                     9.135     55.41     31.611 
 H                     9.196     53.809    30.885 
 C                     10.069    53.932    32.812 
 N                     11.03     53.044    33.009 
 C                     10.957    52.791    34.309 
 H                     11.618    52.128    34.841 
 N                     9.992     53.498    34.861 
 H                     9.735     53.451    35.837 
 C                     9.4       54.235    33.961 
 H                     8.59      54.928    34.092 
 C                     10.427    55.616    29.361 
 O                     10.175    56.815    29.376 
 N                     10.395    54.855    28.286 
 H                     10.682    53.887    28.336 
 C                     9.709     55.293    27.119 
 H                     9.09      56.169    27.313 
 H                     10.42     55.527    26.326 
 H                     9.054     54.461    26.863 
 H                     8.184     48.011    25.064 
 C                     8.982     47.876    25.794 
 H                     8.554     47.516    26.73 
 H                     9.74      47.182    25.431 
 C                     9.623     49.225    26.035 
 O                     9.371     50.18     25.3 
 N                     10.39     49.312    27.11 
 H                     10.514    48.491    27.685 
 C                     11.181    50.492    27.455 
 H                     10.771    51.387    26.99 
 C                     11.25     50.675    28.972 
 H                     10.243    50.829    29.361 
 H                     11.663    49.774    29.426 
 S                     12.284    52.091    29.459 
 C                     12.599    50.196    26.926 
 O                     13.097    49.088    27.205 
 N                     13.311    51.089    26.218 
 H                     12.925    51.995    25.99 
 C                     14.638    50.755    25.757 
 H                     14.746    49.675    25.659 
 H                     14.842    51.177    24.773 
 C                     15.711    51.217    26.705 
 O                     16.912    51.048    26.403 
 N                     15.333    51.817    27.84 
 H                     14.355    51.943    28.057 
 C                     16.351    52.308    28.792 
 H                     16.96     53.042    28.265 
 H                     15.903    52.793    29.659 
 C                     17.194    51.119    29.253 
 O                     16.591    50.077    29.535 
 N                     18.528    51.211    29.352 
 H                     19.055    52.071    29.295 
 H                     20.363    50.579    29.816 
 C                     19.402    50.097    29.634 
 H                     19.483    49.495    28.729 
 C                     18.939    49.214    30.788 
 O                     18.71     49.709    31.887 
 N                     18.672    47.936    30.529 
 H                     18.795    47.579    29.594 
 C                     18.31     47.008    31.581 
 H                     18.669    46.019    31.297 
 H                     18.815    47.288    32.507 
 C                     16.81     46.909    31.86 
 O                     16.373    45.904    32.443 
 N                     16.004    47.888    31.424 
 H                     16.384    48.697    30.953 
 C                     14.588    47.835    31.689 
 H                     14.438    47.505    32.719 
 C                     13.969    49.21     31.572 
 H                     14.192    49.631    30.591 
 H                     12.888    49.109    31.643 
 C                     14.415    50.192    32.646 
 N                     13.768    51.325    32.852 
 C                     14.368    51.858    33.896 
 H                     14.099    52.802    34.345 
 N                     15.343    51.072    34.292 
 H                     15.95     51.272    35.073 
 C                     15.429    50.002    33.543 
 H                     16.103    49.167    33.654 
 C                     13.795    46.894    30.794 
 O                     12.861    46.269    31.322 
 N                     14.09     46.683    29.504 
 H                     14.856    47.183    29.075 
 C                     13.233    45.853    28.653 
 H                     12.255    46.332    28.615 
 H                     13.621    45.83     27.635 
 H                     13.084    44.827    28.991 
 Zn                    12.377    52.315    31.721 
 
 Stoichiometry    C31H47N14O10SZn(1+)
 Framework group  C1[X(C31H47N14O10SZn)]
 Deg. of freedom   306
 Full point group                 C1
 Largest Abelian subgroup         C1      NOp   1
 Largest concise Abelian subgroup C1      NOp   1
                         Standard orientation:                         
 ---------------------------------------------------------------------
 Center     Atomic     Atomic              Coordinates (Angstroms)
 Number     Number      Type              X           Y           Z
 ---------------------------------------------------------------------
    1          1             0       -3.933549   -6.273934    0.875685
    2          6             0       -3.911328   -5.547552    0.063150
    3          1             0       -2.897010   -5.443516   -0.321642
    4          1             0       -4.560971   -5.941876   -0.717520
    5          6             0       -4.368198   -4.183031    0.572295
    6          8             0       -5.070042   -3.457653   -0.134279
    7          7             0       -4.015726   -3.710754    1.766150
    8          1             0       -3.431733   -4.264476    2.375526
    9          6             0       -4.439674   -2.379977    2.229870
   10          1             0       -5.528917   -2.345168    2.239588
   11          1             0       -4.097357   -2.242491    3.254876
   12          6             0       -3.907975   -1.217584    1.391780
   13          8             0       -2.804543   -1.291610    0.819964
   14          7             0       -4.692027   -0.149341    1.256027
   15          1             0       -5.603201   -0.115190    1.689727
   16          6             0       -4.204143    1.020636    0.532666
   17          1             0       -3.151557    0.992569    0.513959
   18          6             0       -4.748880    1.125052   -0.902417
   19          1             0       -5.828606    1.278068   -0.850421
   20          1             0       -4.315890    2.010789   -1.368890
   21          6             0       -4.494631   -0.050296   -1.827765
   22          7             0       -3.330048   -0.675160   -1.892290
   23          6             0       -3.537534   -1.625910   -2.793601
   24          1             0       -2.807725   -2.362152   -3.084877
   25          7             0       -4.773270   -1.567407   -3.246715
   26          1             0       -5.150944   -2.177046   -3.958430
   27          6             0       -5.420377   -0.591418   -2.670234
   28          1             0       -6.442318   -0.292309   -2.810518
   29          6             0       -4.661335    2.250419    1.262921
   30          8             0       -5.754256    2.243042    1.816815
   31          7             0       -3.767364    3.211350    1.377797
   32          1             0       -2.857964    3.118006    0.946321
   33          6             0       -4.150978    4.491312    1.866537
   34          1             0       -5.234218    4.603270    1.913751
   35          1             0       -3.731190    4.660312    2.858678
   36          1             0       -3.766772    5.189741    1.123996
   37          1             0        1.410391    7.924938   -2.239259
   38          6             0        1.737164    6.885165   -2.243851
   39          1             0        1.528366    6.448455   -3.220870
   40          1             0        2.798054    6.800538   -2.008648
   41          6             0        0.938452    6.143514   -1.194672
   42          8             0        0.252920    6.757883   -0.377144
   43          7             0        0.973924    4.822921   -1.273784
   44          1             0        1.529870    4.395393   -2.000548
   45          6             0        0.360337    3.929671   -0.292600
   46          1             0       -0.438785    4.433471    0.248638
   47          6             0       -0.179725    2.668685   -0.969199
   48          1             0       -0.951661    2.948988   -1.686577
   49          1             0        0.628903    2.172495   -1.506229
   50         16             0       -0.891416    1.488140    0.218737
   51          6             0        1.504957    3.529874    0.660389
   52          8             0        2.573503    3.146020    0.146216
   53          7             0        1.376864    3.550282    1.997862
   54          1             0        0.514435    3.851282    2.430795
   55          6             0        2.483685    3.156273    2.837331
   56          1             0        3.428496    3.301207    2.313885
   57          1             0        2.536959    3.758078    3.744496
   58          6             0        2.420683    1.705647    3.231278
   59          8             0        3.283611    1.241763    4.007379
   60          7             0        1.418353    0.963938    2.745160
   61          1             0        0.733122    1.365939    2.122021
   62          6             0        1.301716   -0.460297    3.121534
   63          1             0        1.193526   -0.501182    4.205042
   64          1             0        0.429629   -0.934286    2.671624
   65          6             0        2.567536   -1.185480    2.664697
   66          8             0        2.993628   -0.917071    1.535406
   67          7             0        3.179962   -2.077878    3.456140
   68          1             0        2.794005   -2.455727    4.309864
   69          1             0        4.532605   -3.470947    3.916207
   70          6             0        4.453610   -2.689691    3.159656
   71          1             0        5.233212   -1.950441    3.343286
   72          6             0        4.580144   -3.213125    1.732848
   73          8             0        3.751304   -4.003224    1.292354
   74          7             0        5.527605   -2.691114    0.957299
   75          1             0        6.143309   -1.983559    1.327536
   76          6             0        5.772984   -3.189335   -0.380796
   77          1             0        6.832597   -3.059900   -0.600172
   78          1             0        5.557110   -4.258352   -0.419558
   79          6             0        4.969813   -2.494414   -1.480633
   80          8             0        5.369691   -2.567973   -2.653480
   81          7             0        3.883737   -1.785443   -1.140084
   82          1             0        3.577431   -1.741880   -0.178315
   83          6             0        3.092898   -1.135687   -2.155210
   84          1             0        2.982249   -1.817591   -3.000824
   85          6             0        1.701138   -0.839610   -1.642552
   86          1             0        1.764520   -0.251485   -0.726351
   87          1             0        1.182897   -0.232534   -2.381936
   88          6             0        0.853156   -2.076092   -1.380340
   89          7             0       -0.452925   -1.988306   -1.203764
   90          6             0       -0.852791   -3.238681   -1.100349
   91          1             0       -1.875373   -3.546958   -0.944175
   92          7             0        0.181550   -4.041517   -1.204418
   93          1             0        0.125127   -5.047696   -1.151225
   94          6             0        1.291764   -3.370900   -1.380467
   95          1             0        2.285081   -3.761658   -1.536839
   96          6             0        3.671695    0.163394   -2.696261
   97          8             0        3.518996    0.385735   -3.908290
   98          7             0        4.364239    1.029599   -1.944120
   99          1             0        4.498335    0.845618   -0.959759
  100          6             0        4.807978    2.318857   -2.481206
  101          1             0        3.914447    2.878718   -2.756028
  102          1             0        5.323375    2.891376   -1.710502
  103          1             0        5.448332    2.267834   -3.362379
  104         30             0       -1.663116   -0.380165   -0.824999
 ---------------------------------------------------------------------
 Rotational constants (GHZ):      0.0488794      0.0376051      0.0290758
 Standard basis: 6-31G(d) (6D, 7F)
 There are   974 symmetry adapted basis functions of A   symmetry.
 Integral buffers will be    131072 words long.
 Raffenetti 2 integral format.
 Two-electron integral symmetry is turned on.
   974 basis functions,  1884 primitive gaussians,   977 cartesian basis functions
   228 alpha electrons      228 beta electrons
       nuclear repulsion energy     10523.3666999341 Hartrees.
 NAtoms=  104 NActive=  104 NUniq=  104 SFac= 7.50D-01 NAtFMM=   80 NAOKFM=T Big=T
 One-electron integrals computed using PRISM.
 NBasis=   974 RedAO= T  NBF=   974
 NBsUse=   974 1.00D-06 NBFU=   974
 Harris functional with IExCor=  402 diagonalized for initial guess.
 ExpMin= 4.93D-02 ExpMax= 8.24D+04 ExpMxC= 1.24D+04 IAcc=3 IRadAn=         5 AccDes= 0.00D+00
 HarFok:  IExCor= 402 AccDes= 0.00D+00 IRadAn=         5 IDoV=1
 ScaDFX=  1.000000  1.000000  1.000000  1.000000
 Initial guess orbital symmetries:
       Occupied  (A) (A) (A) (A) (A) (A) (A) (A) (A) (A) (A) (A)
                 (A) (A) (A) (A) (A) (A) (A) (A) (A) (A) (A) (A)
                 (A) (A) (A) (A) (A) (A) (A) (A) (A) (A) (A) (A)
                 (A) (A) (A) (A) (A) (A) (A) (A) (A) (A) (A) (A)
                 (A) (A) (A) (A) (A) (A) (A) (A) (A) (A) (A) (A)
                 (A) (A) (A) (A) (A) (A) (A) (A) (A) (A) (A) (A)
                 (A) (A) (A) (A) (A) (A) (A) (A) (A) (A) (A) (A)
                 (A) (A) (A) (A) (A) (A) (A) (A) (A) (A) (A) (A)
                 (A) (A) (A) (A) (A) (A) (A) (A) (A) (A) (A) (A)
                 (A) (A) (A) (A) (A) (A) (A) (A) (A) (A) (A) (A)
                 (A) (A) (A) (A) (A) (A) (A) (A) (A) (A) (A) (A)
                 (A) (A) (A) (A) (A) (A) (A) (A) (A) (A) (A) (A)
                 (A) (A) (A) (A) (A) (A) (A) (A) (A) (A) (A) (A)
                 (A) (A) (A) (A) (A) (A) (A) (A) (A) (A) (A) (A)
                 (A) (A) (A) (A) (A) (A) (A) (A) (A) (A) (A) (A)
                 (A) (A) (A) (A) (A) (A) (A) (A) (A) (A) (A) (A)
                 (A) (A) (A) (A) (A) (A) (A) (A) (A) (A) (A) (A)
                 (A) (A) (A) (A) (A) (A) (A) (A) (A) (A) (A) (A)
                 (A) (A) (A) (A) (A) (A) (A) (A) (A) (A) (A) (A)
       Virtual   (A) (A) (A) (A) (A) (A) (A) (A) (A) (A) (A) (A)
                 (A) (A) (A) (A) (A) (A) (A) (A) (A) (A) (A) (A)
                 (A) (A) (A) (A) (A) (A) (A) (A) (A) (A) (A) (A)
                 (A) (A) (A) (A) (A) (A) (A) (A) (A) (A) (A) (A)
                 (A) (A) (A) (A) (A) (A) (A) (A) (A) (A) (A) (A)
                 (A) (A) (A) (A) (A) (A) (A) (A) (A) (A) (A) (A)
                 (A) (A) (A) (A) (A) (A) (A) (A) (A) (A) (A) (A)
                 (A) (A) (A) (A) (A) (A) (A) (A) (A) (A) (A) (A)
                 (A) (A) (A) (A) (A) (A) (A) (A) (A) (A) (A) (A)
                 (A) (A) (A) (A) (A) (A) (A) (A) (A) (A) (A) (A)
                 (A) (A) (A) (A) (A) (A) (A) (A) (A) (A) (A) (A)
                 (A) (A) (A) (A) (A) (A) (A) (A) (A) (A) (A) (A)
                 (A) (A) (A) (A) (A) (A) (A) (A) (A) (A) (A) (A)
                 (A) (A) (A) (A) (A) (A) (A) (A) (A) (A) (A) (A)
                 (A) (A) (A) (A) (A) (A) (A) (A) (A) (A) (A) (A)
                 (A) (A) (A) (A) (A) (A) (A) (A) (A) (A) (A) (A)
                 (A) (A) (A) (A) (A) (A) (A) (A) (A) (A) (A) (A)
                 (A) (A) (A) (A) (A) (A) (A) (A) (A) (A) (A) (A)
                 (A) (A) (A) (A) (A) (A) (A) (A) (A) (A) (A) (A)
                 (A) (A) (A) (A) (A) (A) (A) (A) (A) (A) (A) (A)
                 (A) (A) (A) (A) (A) (A) (A) (A) (A) (A) (A) (A)
                 (A) (A) (A) (A) (A) (A) (A) (A) (A) (A) (A) (A)
                 (A) (A) (A) (A) (A) (A) (A) (A) (A) (A) (A) (A)
                 (A) (A) (A) (A) (A) (A) (A) (A) (A) (A) (A) (A)
                 (A) (A) (A) (A) (A) (A) (A) (A) (A) (A) (A) (A)
                 (A) (A) (A) (A) (A) (A) (A) (A) (A) (A) (A) (A)
                 (A) (A) (A) (A) (A) (A) (A) (A) (A) (A) (A) (A)
                 (A) (A) (A) (A) (A) (A) (A) (A) (A) (A) (A) (A)
                 (A) (A) (A) (A) (A) (A) (A) (A) (A) (A) (A) (A)
                 (A) (A) (A) (A) (A) (A) (A) (A) (A) (A) (A) (A)
                 (A) (A) (A) (A) (A) (A) (A) (A) (A) (A) (A) (A)
                 (A) (A) (A) (A) (A) (A) (A) (A) (A) (A) (A) (A)
                 (A) (A) (A) (A) (A) (A) (A) (A) (A) (A) (A) (A)
                 (A) (A) (A) (A) (A) (A) (A) (A) (A) (A) (A) (A)
                 (A) (A) (A) (A) (A) (A) (A) (A) (A) (A) (A) (A)
                 (A) (A) (A) (A) (A) (A) (A) (A) (A) (A) (A) (A)
                 (A) (A) (A) (A) (A) (A) (A) (A) (A) (A) (A) (A)
                 (A) (A) (A) (A) (A) (A) (A) (A) (A) (A) (A) (A)
                 (A) (A) (A) (A) (A) (A) (A) (A) (A) (A) (A) (A)
                 (A) (A) (A) (A) (A) (A) (A) (A) (A) (A) (A) (A)
                 (A) (A) (A) (A) (A) (A) (A) (A) (A) (A) (A) (A)
                 (A) (A) (A) (A) (A) (A) (A) (A) (A) (A) (A) (A)
                 (A) (A) (A) (A) (A) (A) (A) (A) (A) (A) (A) (A)
                 (A) (A) (A) (A) (A) (A) (A) (A) (A) (A) (A) (A)
                 (A) (A) (A) (A) (A) (A) (A) (A) (A) (A) (A) (A)
                 (A) (A) (A) (A) (A) (A) (A) (A) (A) (A) (A) (A)
                 (A) (A) (A) (A) (A) (A) (A) (A) (A) (A) (A) (A)
                 (A) (A) (A) (A) (A) (A) (A) (A) (A) (A) (A) (A)
                 (A) (A) (A) (A) (A) (A) (A) (A) (A) (A) (A) (A)
                 (A) (A) (A) (A) (A) (A) (A) (A) (A) (A) (A) (A)
                 (A) (A) (A) (A) (A) (A) (A) (A) (A) (A) (A) (A)
                 (A) (A) (A) (A) (A) (A) (A) (A) (A) (A) (A) (A)
                 (A) (A) (A) (A) (A) (A) (A) (A) (A) (A) (A) (A)
                 (A) (A) (A) (A) (A) (A) (A) (A) (A) (A) (A) (A)
                 (A) (A) (A) (A) (A) (A) (A) (A) (A) (A) (A) (A)
                 (A) (A) (A) (A) (A) (A) (A) (A) (A) (A) (A) (A)
                 (A) (A) (A) (A) (A) (A) (A) (A) (A) (A) (A) (A)
                 (A) (A) (A) (A) (A) (A) (A) (A) (A) (A) (A) (A)
                 (A) (A) (A) (A) (A) (A) (A) (A) (A) (A) (A) (A)
                 (A) (A) (A) (A) (A) (A) (A) (A) (A) (A) (A) (A)
                 (A) (A) (A) (A) (A) (A) (A) (A) (A) (A) (A) (A)
                 (A) (A) (A) (A) (A) (A) (A) (A) (A) (A) (A) (A)
                 (A) (A)
 The electronic state of the initial guess is 1-A.
 Requested convergence on RMS density matrix=1.00D-04 within 128 cycles.
 Requested convergence on MAX density matrix=1.00D-02.
 Requested convergence on             energy=1.00D-02.
 No special actions if energy rises.
 SCF Done:  E(RB+HF-LYP) =  -4905.69021672     A.U. after    8 cycles
             Convg  =    0.5511D-04             -V/T =  2.0056
             S**2   =   0.0000
 QCSCF skips out because SCF is already converged.

 **********************************************************************

            Population analysis using the SCF density.

 **********************************************************************

 Orbital symmetries:
 BldTbl:  Degeneracy threshold= 1.00D-02
       Occupied  (A) (A) (A) (A) (A) (A) (A) (A) (A) (A) (A) (A)
                 (A) (A) (A) (A) (A) (A) (A) (A) (A) (A) (A) (A)
                 (A) (A) (A) (A) (A) (A) (A) (A) (A) (A) (A) (A)
                 (A) (A) (A) (A) (A) (A) (A) (A) (A) (A) (A) (A)
                 (A) (A) (A) (A) (A) (A) (A) (A) (A) (A) (A) (A)
                 (A) (A) (A) (A) (A) (A) (A) (A) (A) (A) (A) (A)
                 (A) (A) (A) (A) (A) (A) (A) (A) (A) (A) (A) (A)
                 (A) (A) (A) (A) (A) (A) (A) (A) (A) (A) (A) (A)
                 (A) (A) (A) (A) (A) (A) (A) (A) (A) (A) (A) (A)
                 (A) (A) (A) (A) (A) (A) (A) (A) (A) (A) (A) (A)
                 (A) (A) (A) (A) (A) (A) (A) (A) (A) (A) (A) (A)
                 (A) (A) (A) (A) (A) (A) (A) (A) (A) (A) (A) (A)
                 (A) (A) (A) (A) (A) (A) (A) (A) (A) (A) (A) (A)
                 (A) (A) (A) (A) (A) (A) (A) (A) (A) (A) (A) (A)
                 (A) (A) (A) (A) (A) (A) (A) (A) (A) (A) (A) (A)
                 (A) (A) (A) (A) (A) (A) (A) (A) (A) (A) (A) (A)
                 (A) (A) (A) (A) (A) (A) (A) (A) (A) (A) (A) (A)
                 (A) (A) (A) (A) (A) (A) (A) (A) (A) (A) (A) (A)
                 (A) (A) (A) (A) (A) (A) (A) (A) (A) (A) (A) (A)
       Virtual   (A) (A) (A) (A) (A) (A) (A) (A) (A) (A) (A) (A)
                 (A) (A) (A) (A) (A) (A) (A) (A) (A) (A) (A) (A)
                 (A) (A) (A) (A) (A) (A) (A) (A) (A) (A) (A) (A)
                 (A) (A) (A) (A) (A) (A) (A) (A) (A) (A) (A) (A)
                 (A) (A) (A) (A) (A) (A) (A) (A) (A) (A) (A) (A)
                 (A) (A) (A) (A) (A) (A) (A) (A) (A) (A) (A) (A)
                 (A) (A) (A) (A) (A) (A) (A) (A) (A) (A) (A) (A)
                 (A) (A) (A) (A) (A) (A) (A) (A) (A) (A) (A) (A)
                 (A) (A) (A) (A) (A) (A) (A) (A) (A) (A) (A) (A)
                 (A) (A) (A) (A) (A) (A) (A) (A) (A) (A) (A) (A)
                 (A) (A) (A) (A) (A) (A) (A) (A) (A) (A) (A) (A)
                 (A) (A) (A) (A) (A) (A) (A) (A) (A) (A) (A) (A)
                 (A) (A) (A) (A) (A) (A) (A) (A) (A) (A) (A) (A)
                 (A) (A) (A) (A) (A) (A) (A) (A) (A) (A) (A) (A)
                 (A) (A) (A) (A) (A) (A) (A) (A) (A) (A) (A) (A)
                 (A) (A) (A) (A) (A) (A) (A) (A) (A) (A) (A) (A)
                 (A) (A) (A) (A) (A) (A) (A) (A) (A) (A) (A) (A)
                 (A) (A) (A) (A) (A) (A) (A) (A) (A) (A) (A) (A)
                 (A) (A) (A) (A) (A) (A) (A) (A) (A) (A) (A) (A)
                 (A) (A) (A) (A) (A) (A) (A) (A) (A) (A) (A) (A)
                 (A) (A) (A) (A) (A) (A) (A) (A) (A) (A) (A) (A)
                 (A) (A) (A) (A) (A) (A) (A) (A) (A) (A) (A) (A)
                 (A) (A) (A) (A) (A) (A) (A) (A) (A) (A) (A) (A)
                 (A) (A) (A) (A) (A) (A) (A) (A) (A) (A) (A) (A)
                 (A) (A) (A) (A) (A) (A) (A) (A) (A) (A) (A) (A)
                 (A) (A) (A) (A) (A) (A) (A) (A) (A) (A) (A) (A)
                 (A) (A) (A) (A) (A) (A) (A) (A) (A) (A) (A) (A)
                 (A) (A) (A) (A) (A) (A) (A) (A) (A) (A) (A) (A)
                 (A) (A) (A) (A) (A) (A) (A) (A) (A) (A) (A) (A)
                 (A) (A) (A) (A) (A) (A) (A) (A) (A) (A) (A) (A)
                 (A) (A) (A) (A) (A) (A) (A) (A) (A) (A) (A) (A)
                 (A) (A) (A) (A) (A) (A) (A) (A) (A) (A) (A) (A)
                 (A) (A) (A) (A) (A) (A) (A) (A) (A) (A) (A) (A)
                 (A) (A) (A) (A) (A) (A) (A) (A) (A) (A) (A) (A)
                 (A) (A) (A) (A) (A) (A) (A) (A) (A) (A) (A) (A)
                 (A) (A) (A) (A) (A) (A) (A) (A) (A) (A) (A) (A)
                 (A) (A) (A) (A) (A) (A) (A) (A) (A) (A) (A) (A)
                 (A) (A) (A) (A) (A) (A) (A) (A) (A) (A) (A) (A)
                 (A) (A) (A) (A) (A) (A) (A) (A) (A) (A) (A) (A)
                 (A) (A) (A) (A) (A) (A) (A) (A) (A) (A) (A) (A)
                 (A) (A) (A) (A) (A) (A) (A) (A) (A) (A) (A) (A)
                 (A) (A) (A) (A) (A) (A) (A) (A) (A) (A) (A) (A)
                 (A) (A) (A) (A) (A) (A) (A) (A) (A) (A) (A) (A)
                 (A) (A) (A) (A) (A) (A) (A) (A) (A) (A) (A) (A)
                 (A) (A) (A) (A) (A) (A) (A) (A) (A) (A) (A) (A)
                 (A) (A) (A) (A) (A) (A) (A) (A) (A) (A) (A) (A)
                 (A) (A) (A) (A) (A) (A) (A) (A) (A) (A) (A) (A)
                 (A) (A) (A) (A) (A) (A) (A) (A) (A) (A) (A) (A)
                 (A) (A) (A) (A) (A) (A) (A) (A) (A) (A) (A) (A)
                 (A) (A) (A) (A) (A) (A) (A) (A) (A) (A) (A) (A)
                 (A) (A) (A) (A) (A) (A) (A) (A) (A) (A) (A) (A)
                 (A) (A) (A) (A) (A) (A) (A) (A) (A) (A) (A) (A)
                 (A) (A) (A) (A) (A) (A) (A) (A) (A) (A) (A) (A)
                 (A) (A) (A) (A) (A) (A) (A) (A) (A) (A) (A) (A)
                 (A) (A) (A) (A) (A) (A) (A) (A) (A) (A) (A) (A)
                 (A) (A) (A) (A) (A) (A) (A) (A) (A) (A) (A) (A)
                 (A) (A) (A) (A) (A) (A) (A) (A) (A) (A) (A) (A)
                 (A) (A) (A) (A) (A) (A) (A) (A) (A) (A) (A) (A)
                 (A) (A) (A) (A) (A) (A) (A) (A) (A) (A) (A) (A)
                 (A) (A) (A) (A) (A) (A) (A) (A) (A) (A) (A) (A)
                 (A) (A) (A) (A) (A) (A) (A) (A) (A) (A) (A) (A)
                 (A) (A) (A) (A) (A) (A) (A) (A) (A) (A) (A) (A)
                 (A) (A)
 The electronic state is 1-A.
 Alpha  occ. eigenvalues -- -347.37741 -88.94115 -42.34427 -37.32918 -37.32806
 Alpha  occ. eigenvalues --  -37.32746 -19.25263 -19.21088 -19.20133 -19.19766
 Alpha  occ. eigenvalues --  -19.18760 -19.18536 -19.17174 -19.16637 -19.16390
 Alpha  occ. eigenvalues --  -19.15962 -14.53363 -14.52752 -14.48401 -14.48326
 Alpha  occ. eigenvalues --  -14.47791 -14.47695 -14.45380 -14.45223 -14.44928
 Alpha  occ. eigenvalues --  -14.44467 -14.43456 -14.43301 -14.42270 -14.41698
 Alpha  occ. eigenvalues --  -10.41922 -10.39305 -10.37886 -10.37691 -10.37258
 Alpha  occ. eigenvalues --  -10.36999 -10.36630 -10.36469 -10.35413 -10.35165
 Alpha  occ. eigenvalues --  -10.34804 -10.34343 -10.33453 -10.33339 -10.33209
 Alpha  occ. eigenvalues --  -10.33042 -10.32590 -10.32238 -10.32167 -10.31902
 Alpha  occ. eigenvalues --  -10.31561 -10.30888 -10.30677 -10.30207 -10.30113
 Alpha  occ. eigenvalues --  -10.30036 -10.29933 -10.29130 -10.28100 -10.27156
 Alpha  occ. eigenvalues --  -10.24398  -8.00389  -5.96857  -5.96396  -5.96040
 Alpha  occ. eigenvalues --   -4.92240  -3.31467  -3.31288  -3.31189  -1.18808
 Alpha  occ. eigenvalues --   -1.18388  -1.16903  -1.13955  -1.12927  -1.12614
 Alpha  occ. eigenvalues --   -1.11297  -1.11124  -1.09045  -1.09006  -1.08677
 Alpha  occ. eigenvalues --   -1.07640  -1.04763  -1.04012  -1.03334  -1.02938
 Alpha  occ. eigenvalues --   -1.02293  -1.01548  -1.01051  -1.00794  -0.99833
 Alpha  occ. eigenvalues --   -0.99230  -0.98635  -0.96715  -0.91691  -0.89837
 Alpha  occ. eigenvalues --   -0.88860  -0.88527  -0.86456  -0.85464  -0.84624
 Alpha  occ. eigenvalues --   -0.82750  -0.82647  -0.81231  -0.81042  -0.80130
 Alpha  occ. eigenvalues --   -0.78111  -0.77304  -0.77174  -0.76856  -0.76304
 Alpha  occ. eigenvalues --   -0.76234  -0.74013  -0.72676  -0.71826  -0.70944
 Alpha  occ. eigenvalues --   -0.70504  -0.70132  -0.69920  -0.68297  -0.68219
 Alpha  occ. eigenvalues --   -0.67600  -0.67513  -0.66859  -0.66164  -0.66137
 Alpha  occ. eigenvalues --   -0.65972  -0.65192  -0.63842  -0.63342  -0.62502
 Alpha  occ. eigenvalues --   -0.61753  -0.61339  -0.60945  -0.60818  -0.60056
 Alpha  occ. eigenvalues --   -0.59781  -0.59587  -0.59365  -0.59051  -0.58880
 Alpha  occ. eigenvalues --   -0.58646  -0.57932  -0.57890  -0.57626  -0.57316
 Alpha  occ. eigenvalues --   -0.57302  -0.56986  -0.56933  -0.56852  -0.56736
 Alpha  occ. eigenvalues --   -0.56360  -0.56243  -0.55912  -0.55750  -0.55452
 Alpha  occ. eigenvalues --   -0.55023  -0.54903  -0.54238  -0.53142  -0.52943
 Alpha  occ. eigenvalues --   -0.52643  -0.52573  -0.52090  -0.51854  -0.51669
 Alpha  occ. eigenvalues --   -0.51473  -0.51227  -0.51020  -0.50795  -0.50565
 Alpha  occ. eigenvalues --   -0.50371  -0.50183  -0.49986  -0.49774  -0.49132
 Alpha  occ. eigenvalues --   -0.48986  -0.48848  -0.48518  -0.48442  -0.48242
 Alpha  occ. eigenvalues --   -0.47877  -0.47536  -0.47136  -0.46941  -0.46764
 Alpha  occ. eigenvalues --   -0.46576  -0.46336  -0.46179  -0.46137  -0.45768
 Alpha  occ. eigenvalues --   -0.45308  -0.45018  -0.44934  -0.44705  -0.44374
 Alpha  occ. eigenvalues --   -0.44242  -0.43968  -0.43647  -0.43500  -0.42888
 Alpha  occ. eigenvalues --   -0.42099  -0.41912  -0.41713  -0.40275  -0.39982
 Alpha  occ. eigenvalues --   -0.38286  -0.36752  -0.36444  -0.35417  -0.35195
 Alpha  occ. eigenvalues --   -0.35023  -0.34980  -0.34920  -0.34545  -0.34226
 Alpha  occ. eigenvalues --   -0.34059  -0.33946  -0.33223  -0.32806  -0.32700
 Alpha  occ. eigenvalues --   -0.32269  -0.32164  -0.31804  -0.30702  -0.30371
 Alpha  occ. eigenvalues --   -0.30250  -0.30093  -0.29031
 Alpha virt. eigenvalues --   -0.11319  -0.10810  -0.10328  -0.09372  -0.08177
 Alpha virt. eigenvalues --   -0.07574  -0.06760  -0.06473  -0.06254  -0.06049
 Alpha virt. eigenvalues --   -0.05648  -0.05296  -0.05145  -0.04223  -0.04176
 Alpha virt. eigenvalues --   -0.03913  -0.03318  -0.02921  -0.02857  -0.02263
 Alpha virt. eigenvalues --   -0.02017  -0.00889  -0.00871  -0.00447  -0.00124
 Alpha virt. eigenvalues --    0.00173   0.00460   0.00661   0.00960   0.01677
 Alpha virt. eigenvalues --    0.02176   0.02436   0.02861   0.03317   0.04241
 Alpha virt. eigenvalues --    0.04465   0.04896   0.05110   0.05423   0.05639
 Alpha virt. eigenvalues --    0.06062   0.06242   0.06455   0.06821   0.07184
 Alpha virt. eigenvalues --    0.07351   0.07497   0.07624   0.07767   0.07970
 Alpha virt. eigenvalues --    0.07995   0.08580   0.08908   0.09079   0.09162
 Alpha virt. eigenvalues --    0.09592   0.09903   0.10040   0.10285   0.10495
 Alpha virt. eigenvalues --    0.10836   0.10899   0.11016   0.11247   0.11350
 Alpha virt. eigenvalues --    0.11666   0.11740   0.12003   0.12135   0.12346
 Alpha virt. eigenvalues --    0.12667   0.12921   0.13063   0.13323   0.13558
 Alpha virt. eigenvalues --    0.13857   0.14194   0.14380   0.14568   0.15139
 Alpha virt. eigenvalues --    0.15346   0.15598   0.16396   0.16464   0.17326
 Alpha virt. eigenvalues --    0.17546   0.18168   0.18366   0.18982   0.19211
 Alpha virt. eigenvalues --    0.19307   0.19511   0.20134   0.20577   0.20774
 Alpha virt. eigenvalues --    0.21426   0.21857   0.22849   0.23541   0.24000
 Alpha virt. eigenvalues --    0.24189   0.24935   0.25131   0.25851   0.26295
 Alpha virt. eigenvalues --    0.26529   0.27361   0.28192   0.28608   0.29116
 Alpha virt. eigenvalues --    0.29392   0.29709   0.30092   0.31074   0.31450
 Alpha virt. eigenvalues --    0.32704   0.33263   0.33578   0.33748   0.34341
 Alpha virt. eigenvalues --    0.34447   0.35616   0.35901   0.36672   0.37770
 Alpha virt. eigenvalues --    0.38709   0.39239   0.39701   0.40492   0.40799
 Alpha virt. eigenvalues --    0.41284   0.41977   0.42382   0.42901   0.43357
 Alpha virt. eigenvalues --    0.43629   0.43861   0.44068   0.44493   0.44784
 Alpha virt. eigenvalues --    0.44973   0.45384   0.45565   0.45694   0.45824
 Alpha virt. eigenvalues --    0.46206   0.46424   0.46695   0.46946   0.47138
 Alpha virt. eigenvalues --    0.47238   0.47726   0.47958   0.48070   0.48311
 Alpha virt. eigenvalues --    0.48459   0.48739   0.48857   0.48876   0.49206
 Alpha virt. eigenvalues --    0.49509   0.49654   0.50066   0.50259   0.50416
 Alpha virt. eigenvalues --    0.50654   0.50960   0.51219   0.51574   0.51998
 Alpha virt. eigenvalues --    0.52074   0.52316   0.52477   0.52904   0.53292
 Alpha virt. eigenvalues --    0.53425   0.54038   0.54257   0.54633   0.55198
 Alpha virt. eigenvalues --    0.55391   0.56080   0.56525   0.56673   0.57029
 Alpha virt. eigenvalues --    0.57633   0.58104   0.58150   0.58342   0.58762
 Alpha virt. eigenvalues --    0.59111   0.59361   0.59850   0.60107   0.60374
 Alpha virt. eigenvalues --    0.60707   0.61258   0.61559   0.61843   0.62101
 Alpha virt. eigenvalues --    0.62257   0.62445   0.62693   0.63111   0.64057
 Alpha virt. eigenvalues --    0.64087   0.64963   0.65375   0.65721   0.65962
 Alpha virt. eigenvalues --    0.66233   0.66565   0.66913   0.67504   0.67884
 Alpha virt. eigenvalues --    0.67963   0.68779   0.69159   0.69396   0.70292
 Alpha virt. eigenvalues --    0.70326   0.70665   0.70939   0.71140   0.71599
 Alpha virt. eigenvalues --    0.71768   0.71919   0.72213   0.72547   0.72684
 Alpha virt. eigenvalues --    0.72922   0.73221   0.73417   0.73950   0.74137
 Alpha virt. eigenvalues --    0.74503   0.74684   0.74886   0.75295   0.75397
 Alpha virt. eigenvalues --    0.75800   0.76043   0.76261   0.76573   0.76828
 Alpha virt. eigenvalues --    0.77144   0.77387   0.77579   0.77664   0.77816
 Alpha virt. eigenvalues --    0.78288   0.78467   0.79194   0.79291   0.79315
 Alpha virt. eigenvalues --    0.79658   0.79840   0.80033   0.80608   0.80766
 Alpha virt. eigenvalues --    0.80901   0.81238   0.81282   0.81529   0.81962
 Alpha virt. eigenvalues --    0.82156   0.82241   0.82482   0.82584   0.83055
 Alpha virt. eigenvalues --    0.83351   0.83871   0.84046   0.84384   0.84596
 Alpha virt. eigenvalues --    0.84743   0.85144   0.85251   0.85571   0.85969
 Alpha virt. eigenvalues --    0.86283   0.86353   0.86906   0.87123   0.87329
 Alpha virt. eigenvalues --    0.87614   0.88122   0.88293   0.88590   0.88902
 Alpha virt. eigenvalues --    0.89345   0.89717   0.89774   0.90284   0.91196
 Alpha virt. eigenvalues --    0.91321   0.92041   0.92232   0.92973   0.93393
 Alpha virt. eigenvalues --    0.93510   0.94099   0.94660   0.95004   0.95456
 Alpha virt. eigenvalues --    0.95890   0.96453   0.97199   0.97537   0.97955
 Alpha virt. eigenvalues --    0.98104   0.99109   0.99223   0.99538   1.00009
 Alpha virt. eigenvalues --    1.00179   1.00974   1.01619   1.01849   1.02081
 Alpha virt. eigenvalues --    1.02471   1.02932   1.03693   1.04441   1.04696
 Alpha virt. eigenvalues --    1.04891   1.05241   1.05564   1.06164   1.06506
 Alpha virt. eigenvalues --    1.06994   1.07399   1.08199   1.08461   1.08844
 Alpha virt. eigenvalues --    1.09101   1.09436   1.10290   1.10392   1.10879
 Alpha virt. eigenvalues --    1.11207   1.12352   1.12579   1.13266   1.14345
 Alpha virt. eigenvalues --    1.14442   1.15196   1.15711   1.16300   1.17054
 Alpha virt. eigenvalues --    1.17594   1.18818   1.19221   1.19271   1.19821
 Alpha virt. eigenvalues --    1.20345   1.20626   1.20966   1.21779   1.22376
 Alpha virt. eigenvalues --    1.22864   1.23275   1.23976   1.24446   1.25160
 Alpha virt. eigenvalues --    1.25509   1.25741   1.26119   1.26887   1.26935
 Alpha virt. eigenvalues --    1.27602   1.27723   1.28772   1.29265   1.29981
 Alpha virt. eigenvalues --    1.30552   1.30747   1.31387   1.31899   1.32699
 Alpha virt. eigenvalues --    1.33422   1.33727   1.34087   1.34487   1.34642
 Alpha virt. eigenvalues --    1.35294   1.35650   1.36408   1.37013   1.37658
 Alpha virt. eigenvalues --    1.38056   1.38928   1.39439   1.39982   1.40614
 Alpha virt. eigenvalues --    1.41021   1.41192   1.41688   1.42136   1.42696
 Alpha virt. eigenvalues --    1.43462   1.43709   1.44201   1.44711   1.45370
 Alpha virt. eigenvalues --    1.45706   1.45959   1.46763   1.47268   1.47784
 Alpha virt. eigenvalues --    1.49156   1.49714   1.50640   1.51531   1.52444
 Alpha virt. eigenvalues --    1.52783   1.54231   1.54286   1.55145   1.55855
 Alpha virt. eigenvalues --    1.56395   1.57448   1.57841   1.58633   1.59540
 Alpha virt. eigenvalues --    1.60008   1.61003   1.61497   1.62248   1.63030
 Alpha virt. eigenvalues --    1.63512   1.63744   1.63841   1.65647   1.66037
 Alpha virt. eigenvalues --    1.66092   1.66521   1.67495   1.67881   1.68834
 Alpha virt. eigenvalues --    1.69476   1.69530   1.70232   1.70360   1.71721
 Alpha virt. eigenvalues --    1.72080   1.72518   1.73141   1.73169   1.73452
 Alpha virt. eigenvalues --    1.73659   1.74244   1.74447   1.74712   1.75389
 Alpha virt. eigenvalues --    1.75611   1.75947   1.76582   1.76936   1.77054
 Alpha virt. eigenvalues --    1.77394   1.77662   1.78048   1.78365   1.78591
 Alpha virt. eigenvalues --    1.79129   1.79790   1.80452   1.80603   1.81065
 Alpha virt. eigenvalues --    1.81588   1.81945   1.82571   1.82812   1.83526
 Alpha virt. eigenvalues --    1.83704   1.84403   1.84543   1.84846   1.85077
 Alpha virt. eigenvalues --    1.85351   1.85998   1.86327   1.86420   1.86921
 Alpha virt. eigenvalues --    1.87079   1.87338   1.88039   1.88722   1.88902
 Alpha virt. eigenvalues --    1.89159   1.89576   1.89750   1.90061   1.90160
 Alpha virt. eigenvalues --    1.90731   1.90931   1.91350   1.91553   1.93437
 Alpha virt. eigenvalues --    1.93723   1.94232   1.94331   1.94710   1.95119
 Alpha virt. eigenvalues --    1.95491   1.95598   1.96562   1.96799   1.97126
 Alpha virt. eigenvalues --    1.97904   1.98165   1.98268   1.98471   1.98676
 Alpha virt. eigenvalues --    1.98892   1.99335   2.00239   2.01632   2.02144
 Alpha virt. eigenvalues --    2.02455   2.02559   2.03023   2.03585   2.04266
 Alpha virt. eigenvalues --    2.04689   2.05015   2.05265   2.05558   2.06124
 Alpha virt. eigenvalues --    2.06495   2.06887   2.07100   2.07691   2.07941
 Alpha virt. eigenvalues --    2.08636   2.08931   2.09604   2.10727   2.11034
 Alpha virt. eigenvalues --    2.11467   2.11901   2.12167   2.12618   2.12809
 Alpha virt. eigenvalues --    2.13264   2.13477   2.14014   2.14215   2.14551
 Alpha virt. eigenvalues --    2.15287   2.15585   2.16134   2.17058   2.17120
 Alpha virt. eigenvalues --    2.17692   2.19044   2.19708   2.20187   2.20863
 Alpha virt. eigenvalues --    2.21470   2.21849   2.22439   2.22756   2.22764
 Alpha virt. eigenvalues --    2.23562   2.23855   2.24087   2.24843   2.25566
 Alpha virt. eigenvalues --    2.26159   2.26997   2.27428   2.27527   2.28268
 Alpha virt. eigenvalues --    2.28578   2.28942   2.29056   2.29638   2.30157
 Alpha virt. eigenvalues --    2.30554   2.30967   2.31771   2.32072   2.32615
 Alpha virt. eigenvalues --    2.33171   2.33420   2.33837   2.34154   2.34594
 Alpha virt. eigenvalues --    2.35201   2.35550   2.36803   2.37114   2.37677
 Alpha virt. eigenvalues --    2.37861   2.39203   2.39583   2.40021   2.40804
 Alpha virt. eigenvalues --    2.41594   2.42597   2.43129   2.43305   2.44323
 Alpha virt. eigenvalues --    2.44733   2.44843   2.45895   2.46508   2.47643
 Alpha virt. eigenvalues --    2.47713   2.48817   2.50230   2.50586   2.51637
 Alpha virt. eigenvalues --    2.51996   2.52593   2.53198   2.54133   2.54501
 Alpha virt. eigenvalues --    2.55086   2.55416   2.55520   2.56053   2.56877
 Alpha virt. eigenvalues --    2.57080   2.57600   2.58051   2.59220   2.59365
 Alpha virt. eigenvalues --    2.59672   2.59800   2.61314   2.61906   2.62152
 Alpha virt. eigenvalues --    2.62613   2.62971   2.63097   2.64037   2.64947
 Alpha virt. eigenvalues --    2.65598   2.66180   2.66967   2.67597   2.67720
 Alpha virt. eigenvalues --    2.68861   2.69930   2.70452   2.71397   2.73962
 Alpha virt. eigenvalues --    2.75221   2.75809   2.76647   2.77692   2.79122
 Alpha virt. eigenvalues --    2.80328   2.81721   2.82303   2.84023   2.85331
 Alpha virt. eigenvalues --    2.86135   2.86892   2.87754   2.89259   2.90802
 Alpha virt. eigenvalues --    2.91413   2.91686   2.92610   2.93304   2.93939
 Alpha virt. eigenvalues --    2.94321   2.94940   2.96359   2.97253   2.97644
 Alpha virt. eigenvalues --    3.05417   3.06459   3.06745   3.06869   3.07688
 Alpha virt. eigenvalues --    3.08104   3.08643   3.09208   3.10824   3.11977
 Alpha virt. eigenvalues --    3.12379   3.12492   3.13538   3.15014   3.81312
 Alpha virt. eigenvalues --    3.84311   3.85288   3.86430   3.88238   3.90575
 Alpha virt. eigenvalues --    3.92478   3.93001   3.94449   3.94794   3.95398
 Alpha virt. eigenvalues --    3.97364   3.97805   3.99482   4.00253   4.00847
 Alpha virt. eigenvalues --    4.02853   4.03204   4.04028   4.04781   4.10413
 Alpha virt. eigenvalues --    4.10712   4.11652   4.12298   4.12863   4.14136
 Alpha virt. eigenvalues --    4.15049   4.15360   4.16098   4.17091   4.18030
 Alpha virt. eigenvalues --    4.18512   4.20359   4.21441   4.21892   4.22847
 Alpha virt. eigenvalues --    4.24019   4.26483   4.27140   4.28355   4.30234
 Alpha virt. eigenvalues --    4.33202   4.36257   4.36523   4.40133   4.43652
 Alpha virt. eigenvalues --    4.44285   4.44968   4.45863   4.49419   4.50525
 Alpha virt. eigenvalues --    4.53310   4.55014   4.58734   4.67863   4.70154
 Alpha virt. eigenvalues --   47.27515
          Condensed to atoms (all electrons):
 Mulliken atomic charges:
              1
     1  H    0.181173
     2  C   -0.542732
     3  H    0.156357
     4  H    0.211568
     5  C    0.595795
     6  O   -0.528882
     7  N   -0.563125
     8  H    0.337837
     9  C   -0.229680
    10  H    0.203357
    11  H    0.200148
    12  C    0.670371
    13  O   -0.571435
    14  N   -0.569500
    15  H    0.365285
    16  C   -0.067284
    17  H    0.158668
    18  C   -0.363101
    19  H    0.184002
    20  H    0.186049
    21  C    0.295773
    22  N   -0.583898
    23  C    0.242382
    24  H    0.193951
    25  N   -0.516660
    26  H    0.373776
    27  C    0.012652
    28  H    0.206124
    29  C    0.609871
    30  O   -0.534317
    31  N   -0.585993
    32  H    0.365771
    33  C   -0.324869
    34  H    0.211284
    35  H    0.175527
    36  H    0.171269
    37  H    0.199686
    38  C   -0.542393
    39  H    0.160318
    40  H    0.184507
    41  C    0.578819
    42  O   -0.519445
    43  N   -0.564432
    44  H    0.344702
    45  C   -0.039878
    46  H    0.171119
    47  C   -0.428690
    48  H    0.190105
    49  H    0.200758
    50  S   -0.363874
    51  C    0.635740
    52  O   -0.543899
    53  N   -0.613034
    54  H    0.341180
    55  C   -0.230940
    56  H    0.230782
    57  H    0.198429
    58  C    0.613093
    59  O   -0.547663
    60  N   -0.597992
    61  H    0.389353
    62  C   -0.230747
    63  H    0.175286
    64  H    0.190237
    65  C    0.659872
    66  O   -0.546600
    67  N   -0.571323
    68  H    0.343084
    69  H    0.181998
    70  C   -0.222765
    71  H    0.179048
    72  C    0.617716
    73  O   -0.541478
    74  N   -0.584378
    75  H    0.344420
    76  C   -0.235121
    77  H    0.196575
    78  H    0.210109
    79  C    0.583260
    80  O   -0.511512
    81  N   -0.657020
    82  H    0.413601
    83  C   -0.021807
    84  H    0.187562
    85  C   -0.419727
    86  H    0.220260
    87  H    0.188454
    88  C    0.274853
    89  N   -0.592763
    90  C    0.233744
    91  H    0.199985
    92  N   -0.545781
    93  H    0.366807
    94  C    0.034297
    95  H    0.228110
    96  C    0.622785
    97  O   -0.554106
    98  N   -0.583871
    99  H    0.339511
   100  C   -0.288334
   101  H    0.156474
   102  H    0.162913
   103  H    0.191628
   104  Zn   0.830876
 Sum of Mulliken charges=   1.00000
 Atomic charges with hydrogens summed into heavy atoms:
              1
     1  H    0.000000
     2  C    0.006367
     3  H    0.000000
     4  H    0.000000
     5  C    0.595795
     6  O   -0.528882
     7  N   -0.225288
     8  H    0.000000
     9  C    0.173825
    10  H    0.000000
    11  H    0.000000
    12  C    0.670371
    13  O   -0.571435
    14  N   -0.204215
    15  H    0.000000
    16  C    0.091384
    17  H    0.000000
    18  C    0.006950
    19  H    0.000000
    20  H    0.000000
    21  C    0.295773
    22  N   -0.583898
    23  C    0.436333
    24  H    0.000000
    25  N   -0.142884
    26  H    0.000000
    27  C    0.218776
    28  H    0.000000
    29  C    0.609871
    30  O   -0.534317
    31  N   -0.220223
    32  H    0.000000
    33  C    0.233212
    34  H    0.000000
    35  H    0.000000
    36  H    0.000000
    37  H    0.000000
    38  C    0.002118
    39  H    0.000000
    40  H    0.000000
    41  C    0.578819
    42  O   -0.519445
    43  N   -0.219730
    44  H    0.000000
    45  C    0.131241
    46  H    0.000000
    47  C   -0.037828
    48  H    0.000000
    49  H    0.000000
    50  S   -0.363874
    51  C    0.635740
    52  O   -0.543899
    53  N   -0.271854
    54  H    0.000000
    55  C    0.198271
    56  H    0.000000
    57  H    0.000000
    58  C    0.613093
    59  O   -0.547663
    60  N   -0.208639
    61  H    0.000000
    62  C    0.134776
    63  H    0.000000
    64  H    0.000000
    65  C    0.659872
    66  O   -0.546600
    67  N   -0.228239
    68  H    0.000000
    69  H    0.000000
    70  C    0.138281
    71  H    0.000000
    72  C    0.617716
    73  O   -0.541478
    74  N   -0.239958
    75  H    0.000000
    76  C    0.171563
    77  H    0.000000
    78  H    0.000000
    79  C    0.583260
    80  O   -0.511512
    81  N   -0.243419
    82  H    0.000000
    83  C    0.165756
    84  H    0.000000
    85  C   -0.011013
    86  H    0.000000
    87  H    0.000000
    88  C    0.274853
    89  N   -0.592763
    90  C    0.433729
    91  H    0.000000
    92  N   -0.178974
    93  H    0.000000
    94  C    0.262407
    95  H    0.000000
    96  C    0.622785
    97  O   -0.554106
    98  N   -0.244360
    99  H    0.000000
   100  C    0.222681
   101  H    0.000000
   102  H    0.000000
   103  H    0.000000
   104  Zn   0.830876
 Sum of Mulliken charges=   1.00000
 Entering OneElI...
 OneElI was handed784983487 working-precision words.
 Multipole integrals L=0 to 4 MinM= 0 MaxM= 0.
 Requested accuracy = 0.1000D-12
 PrsmSu:  NPrtUS=   1 ThrOK=F
 PRISM was handed   782351225 working-precision words and 29057 shell-pairs
 Electronic moments (au):
  -456.00000000    -4.94861129    -4.50563355     0.90278240
-19659.68292096-14034.82485032 -6378.37340996    21.47259726
    38.17897862   -11.57106584 10015.72070357-34998.13658314
 -3763.95921628 -3108.68746279 28419.86597019  1532.46718211
-11904.00223894  -287.38842874  3049.35706621  7816.91363880
*********************************************139941.59355085
 55610.83820466***************102806.76824354-40394.74532071
 -1306.25546802*********************************************
 -9304.82723623 49973.73345834 -5383.18516128
 Electronic spatial extent (au):  <R**2>= 40072.8812
 Nuclear    moments (au):
   457.00000000     0.00000000     0.00000000     0.00000000
 19458.47262420 13830.42775680  6147.89811544     0.00000000
     0.00000000     0.00000000-10137.21529121 34464.25374114
  3900.00919315  2994.48703059-28603.67807399 -1533.10435141
 11530.60395793   158.11959198 -3080.18132490 -7972.60688316
******************************181072.97405426***************
-50788.48887182129504.30888652*************** 42882.19065460
   654.91290565476577.94035119286687.11219970131299.58369891
  7807.58560184-50008.36902386  6371.40009835
 Total      moments (au):
     1.00000000    -4.94861129    -4.50563355     0.90278240
  -201.21029676  -204.39709352  -230.47529452    21.47259726
    38.17897862   -11.57106584  -121.49458764  -533.88284199
   136.04997688  -114.20043220  -183.81210380    -0.63716930
  -373.39828101  -129.26883676   -30.82425869  -155.69324436
-59695.21579954-46237.15921432-21184.42905075   953.23628649
  4822.34933284  2368.31561746  -375.58914681  2487.44533389
  -651.34256237-17006.68054244-13764.32934541 -9505.41410402
 -1497.24163439   -34.63556552   988.21493707
 Charge=     1.0000 electrons
 Dipole moment (field-independent basis, Debye):
    X=   -12.5781    Y=   -11.4522    Z=     2.2946  Tot=    17.1647
 Quadrupole moment (field-independent basis, Debye-Ang):
   XX=  -270.6347   YY=  -274.9211   ZZ=  -309.9971
   XY=    28.8814   XZ=    51.3520   YZ=   -15.5635
 Traceless Quadrupole moment (field-independent basis, Debye-Ang):
   XX=    14.5496   YY=    10.2632   ZZ=   -24.8128
   XY=    28.8814   XZ=    51.3520   YZ=   -15.5635
 Octapole moment (field-independent basis, Debye-Ang**2):
  XXX=   -86.4752  YYY=  -379.9972  ZZZ=    96.8351  XYY=   -81.2835
  XXY=  -130.8304  XXZ=    -0.4535  XZZ=  -265.7705  YZZ=   -92.0086
  YYZ=   -21.9395  XYZ=  -110.8164
 Hexadecapole moment (field-independent basis, Debye-Ang**3):
 XXXX=-22484.0789 YYYY=-17415.1298 ZZZZ= -7979.0711 XXXY=   359.0345
 XXXZ=  1816.3278 YYYX=   892.0212 YYYZ=  -141.4649 ZZZX=   936.8911
 ZZZY=  -245.3268 XXYY= -6405.5309 XXZZ= -5184.3060 YYZZ= -3580.1945
 XXYZ=  -563.9329 YYXZ=   -13.0454 ZZXY=   372.2091
 N-N= 1.052336669993D+04 E-N=-3.257573572381D+04  KE= 4.878440919453D+03
 Leave Link  601 at Mon Nov  2 22:12:41 2015, MaxMem=  786432000 cpu:      12.0
 Merz-Kollman atomic radii used.
 Read replacement radii for each type of atom:
 Rad(30) =   1.395000000000D+00
 Atom Element Radius
    1     1    1.20
    2     6    1.50
    3     1    1.20
    4     1    1.20
    5     6    1.50
    6     8    1.40
    7     7    1.50
    8     1    1.20
    9     6    1.50
   10     1    1.20
   11     1    1.20
   12     6    1.50
   13     8    1.40
   14     7    1.50
   15     1    1.20
   16     6    1.50
   17     1    1.20
   18     6    1.50
   19     1    1.20
   20     1    1.20
   21     6    1.50
   22     7    1.50
   23     6    1.50
   24     1    1.20
   25     7    1.50
   26     1    1.20
   27     6    1.50
   28     1    1.20
   29     6    1.50
   30     8    1.40
   31     7    1.50
   32     1    1.20
   33     6    1.50
   34     1    1.20
   35     1    1.20
   36     1    1.20
   37     1    1.20
   38     6    1.50
   39     1    1.20
   40     1    1.20
   41     6    1.50
   42     8    1.40
   43     7    1.50
   44     1    1.20
   45     6    1.50
   46     1    1.20
   47     6    1.50
   48     1    1.20
   49     1    1.20
   50    16    1.75
   51     6    1.50
   52     8    1.40
   53     7    1.50
   54     1    1.20
   55     6    1.50
   56     1    1.20
   57     1    1.20
   58     6    1.50
   59     8    1.40
   60     7    1.50
   61     1    1.20
   62     6    1.50
   63     1    1.20
   64     1    1.20
   65     6    1.50
   66     8    1.40
   67     7    1.50
   68     1    1.20
   69     1    1.20
   70     6    1.50
   71     1    1.20
   72     6    1.50
   73     8    1.40
   74     7    1.50
   75     1    1.20
   76     6    1.50
   77     1    1.20
   78     1    1.20
   79     6    1.50
   80     8    1.40
   81     7    1.50
   82     1    1.20
   83     6    1.50
   84     1    1.20
   85     6    1.50
   86     1    1.20
   87     1    1.20
   88     6    1.50
   89     7    1.50
   90     6    1.50
   91     1    1.20
   92     7    1.50
   93     1    1.20
   94     6    1.50
   95     1    1.20
   96     6    1.50
   97     8    1.40
   98     7    1.50
   99     1    1.20
  100     6    1.50
  101     1    1.20
  102     1    1.20
  103     1    1.20
  104    30    1.40
 Generate VDW surfaces: Layer= 4 Dens= 1 Start= 1.400 Inc= 0.200

 **********************************************************************

            Electrostatic Properties Using The SCF Density

 **********************************************************************

       Atomic Center    1 is at  -3.933549 -6.273934  0.875685
       Atomic Center    2 is at  -3.911328 -5.547552  0.063150
       Atomic Center    3 is at  -2.897010 -5.443516 -0.321642
       Atomic Center    4 is at  -4.560971 -5.941876 -0.717520
       Atomic Center    5 is at  -4.368198 -4.183031  0.572295
       Atomic Center    6 is at  -5.070042 -3.457653 -0.134279
       Atomic Center    7 is at  -4.015726 -3.710754  1.766150
       Atomic Center    8 is at  -3.431733 -4.264476  2.375526
       Atomic Center    9 is at  -4.439674 -2.379977  2.229870
       Atomic Center   10 is at  -5.528917 -2.345168  2.239588
       Atomic Center   11 is at  -4.097357 -2.242491  3.254876
       Atomic Center   12 is at  -3.907975 -1.217584  1.391780
       Atomic Center   13 is at  -2.804543 -1.291610  0.819964
       Atomic Center   14 is at  -4.692027 -0.149341  1.256027
       Atomic Center   15 is at  -5.603201 -0.115190  1.689727
       Atomic Center   16 is at  -4.204143  1.020636  0.532666
       Atomic Center   17 is at  -3.151557  0.992569  0.513959
       Atomic Center   18 is at  -4.748880  1.125052 -0.902417
       Atomic Center   19 is at  -5.828606  1.278068 -0.850421
       Atomic Center   20 is at  -4.315890  2.010789 -1.368890
       Atomic Center   21 is at  -4.494631 -0.050296 -1.827765
       Atomic Center   22 is at  -3.330048 -0.675160 -1.892290
       Atomic Center   23 is at  -3.537534 -1.625910 -2.793601
       Atomic Center   24 is at  -2.807725 -2.362152 -3.084877
       Atomic Center   25 is at  -4.773270 -1.567407 -3.246715
       Atomic Center   26 is at  -5.150944 -2.177046 -3.958430
       Atomic Center   27 is at  -5.420377 -0.591418 -2.670234
       Atomic Center   28 is at  -6.442318 -0.292309 -2.810518
       Atomic Center   29 is at  -4.661335  2.250419  1.262921
       Atomic Center   30 is at  -5.754256  2.243042  1.816815
       Atomic Center   31 is at  -3.767364  3.211350  1.377797
       Atomic Center   32 is at  -2.857964  3.118006  0.946321
       Atomic Center   33 is at  -4.150978  4.491312  1.866537
       Atomic Center   34 is at  -5.234218  4.603270  1.913751
       Atomic Center   35 is at  -3.731190  4.660312  2.858678
       Atomic Center   36 is at  -3.766772  5.189741  1.123996
       Atomic Center   37 is at   1.410391  7.924938 -2.239259
       Atomic Center   38 is at   1.737164  6.885165 -2.243851
       Atomic Center   39 is at   1.528366  6.448455 -3.220870
       Atomic Center   40 is at   2.798054  6.800538 -2.008648
       Atomic Center   41 is at   0.938452  6.143514 -1.194672
       Atomic Center   42 is at   0.252920  6.757883 -0.377144
       Atomic Center   43 is at   0.973924  4.822921 -1.273784
       Atomic Center   44 is at   1.529870  4.395393 -2.000548
       Atomic Center   45 is at   0.360337  3.929671 -0.292600
       Atomic Center   46 is at  -0.438785  4.433471  0.248638
       Atomic Center   47 is at  -0.179725  2.668685 -0.969199
       Atomic Center   48 is at  -0.951661  2.948988 -1.686577
       Atomic Center   49 is at   0.628903  2.172495 -1.506229
       Atomic Center   50 is at  -0.891416  1.488140  0.218737
       Atomic Center   51 is at   1.504957  3.529874  0.660389
       Atomic Center   52 is at   2.573503  3.146020  0.146216
       Atomic Center   53 is at   1.376864  3.550282  1.997862
       Atomic Center   54 is at   0.514435  3.851282  2.430795
       Atomic Center   55 is at   2.483685  3.156273  2.837331
       Atomic Center   56 is at   3.428496  3.301207  2.313885
       Atomic Center   57 is at   2.536959  3.758078  3.744496
       Atomic Center   58 is at   2.420683  1.705647  3.231278
       Atomic Center   59 is at   3.283611  1.241763  4.007379
       Atomic Center   60 is at   1.418353  0.963938  2.745160
       Atomic Center   61 is at   0.733122  1.365939  2.122021
       Atomic Center   62 is at   1.301716 -0.460297  3.121534
       Atomic Center   63 is at   1.193526 -0.501182  4.205042
       Atomic Center   64 is at   0.429629 -0.934286  2.671624
       Atomic Center   65 is at   2.567536 -1.185480  2.664697
       Atomic Center   66 is at   2.993628 -0.917071  1.535406
       Atomic Center   67 is at   3.179962 -2.077878  3.456140
       Atomic Center   68 is at   2.794005 -2.455727  4.309864
       Atomic Center   69 is at   4.532605 -3.470947  3.916207
       Atomic Center   70 is at   4.453610 -2.689691  3.159656
       Atomic Center   71 is at   5.233212 -1.950441  3.343286
       Atomic Center   72 is at   4.580144 -3.213125  1.732848
       Atomic Center   73 is at   3.751304 -4.003224  1.292354
       Atomic Center   74 is at   5.527605 -2.691114  0.957299
       Atomic Center   75 is at   6.143309 -1.983559  1.327536
       Atomic Center   76 is at   5.772984 -3.189335 -0.380796
       Atomic Center   77 is at   6.832597 -3.059900 -0.600172
       Atomic Center   78 is at   5.557110 -4.258352 -0.419558
       Atomic Center   79 is at   4.969813 -2.494414 -1.480633
       Atomic Center   80 is at   5.369691 -2.567973 -2.653480
       Atomic Center   81 is at   3.883737 -1.785443 -1.140084
       Atomic Center   82 is at   3.577431 -1.741880 -0.178315
       Atomic Center   83 is at   3.092898 -1.135687 -2.155210
       Atomic Center   84 is at   2.982249 -1.817591 -3.000824
       Atomic Center   85 is at   1.701138 -0.839610 -1.642552
       Atomic Center   86 is at   1.764520 -0.251485 -0.726351
       Atomic Center   87 is at   1.182897 -0.232534 -2.381936
       Atomic Center   88 is at   0.853156 -2.076092 -1.380340
       Atomic Center   89 is at  -0.452925 -1.988306 -1.203764
       Atomic Center   90 is at  -0.852791 -3.238681 -1.100349
       Atomic Center   91 is at  -1.875373 -3.546958 -0.944175
       Atomic Center   92 is at   0.181550 -4.041517 -1.204418
       Atomic Center   93 is at   0.125127 -5.047696 -1.151225
       Atomic Center   94 is at   1.291764 -3.370900 -1.380467
       Atomic Center   95 is at   2.285081 -3.761658 -1.536839
       Atomic Center   96 is at   3.671695  0.163394 -2.696261
       Atomic Center   97 is at   3.518996  0.385735 -3.908290
       Atomic Center   98 is at   4.364239  1.029599 -1.944120
       Atomic Center   99 is at   4.498335  0.845618 -0.959759
       Atomic Center  100 is at   4.807978  2.318857 -2.481206
       Atomic Center  101 is at   3.914447  2.878718 -2.756028
       Atomic Center  102 is at   5.323375  2.891376 -1.710502
       Atomic Center  103 is at   5.448332  2.267834 -3.362379
       Atomic Center  104 is at  -1.663116 -0.380165 -0.824999
      ESP Fit Center  105 is at  -3.933549 -6.273934  2.555685
      ESP Fit Center  106 is at  -2.946070 -6.273934  2.234833
      ESP Fit Center  107 is at  -4.732436 -5.693509  2.234833
      ESP Fit Center  108 is at  -4.732436 -6.854360  2.234833
      ESP Fit Center  109 is at  -3.628401 -7.213083  2.234833
      ESP Fit Center  110 is at  -2.335774 -6.273934  1.394833
      ESP Fit Center  111 is at  -5.434966 -6.820406  1.394833
      ESP Fit Center  112 is at  -4.732436 -7.657648  1.394833
      ESP Fit Center  113 is at  -3.656098 -7.847436  1.394833
      ESP Fit Center  114 is at  -2.709582 -7.300964  1.394833
      ESP Fit Center  115 is at  -4.732436 -7.657648  0.356536
      ESP Fit Center  116 is at  -3.656098 -7.847436  0.356536
      ESP Fit Center  117 is at  -2.709582 -7.300964  0.356536
      ESP Fit Center  118 is at  -5.656313 -6.059925  1.113150
      ESP Fit Center  119 is at  -2.718392 -7.275818  0.063150
      ESP Fit Center  120 is at  -3.155832 -7.201857 -0.986850
      ESP Fit Center  121 is at  -3.386328 -4.638225 -1.755504
      ESP Fit Center  122 is at  -1.909531 -5.443516  1.037507
      ESP Fit Center  123 is at  -1.299235 -5.443516  0.197507
      ESP Fit Center  124 is at  -1.673044 -6.470546  0.197507
      ESP Fit Center  125 is at  -2.619559 -7.017017 -0.840790
      ESP Fit Center  126 is at  -1.673044 -6.470546 -0.840790
      ESP Fit Center  127 is at  -1.909531 -5.443516 -1.680790
      ESP Fit Center  128 is at  -2.591862 -6.382665 -1.680790
      ESP Fit Center  129 is at  -2.897010 -5.443516 -2.001642
      ESP Fit Center  130 is at  -6.062389 -5.395405 -0.198372
      ESP Fit Center  131 is at  -6.062389 -6.488347 -0.198372
      ESP Fit Center  132 is at  -5.359859 -7.325590 -0.198372
      ESP Fit Center  133 is at  -6.062389 -5.395405 -1.236669
      ESP Fit Center  134 is at  -6.062389 -6.488347 -1.236669
      ESP Fit Center  135 is at  -5.359859 -7.325590 -1.236669
      ESP Fit Center  136 is at  -4.283521 -7.515377 -1.236669
      ESP Fit Center  137 is at  -3.573492 -5.941876 -2.076669
      ESP Fit Center  138 is at  -4.255823 -5.002727 -2.076669
      ESP Fit Center  139 is at  -5.359859 -5.361450 -2.076669
      ESP Fit Center  140 is at  -5.359859 -6.522302 -2.076669
      ESP Fit Center  141 is at  -4.255823 -6.881025 -2.076669
      ESP Fit Center  142 is at  -4.560971 -5.941876 -2.397520
      ESP Fit Center  143 is at  -6.113183 -4.695405  1.622295
      ESP Fit Center  144 is at  -5.559163 -5.557477  1.622295
      ESP Fit Center  145 is at  -6.767452 -3.457653  0.845721
      ESP Fit Center  146 is at  -6.443275 -4.455365  0.845721
      ESP Fit Center  147 is at  -6.050042 -1.760243 -0.134279
      ESP Fit Center  148 is at  -6.767452 -2.477653 -0.134279
      ESP Fit Center  149 is at  -7.030042 -3.457653 -0.134279
      ESP Fit Center  150 is at  -6.767452 -4.437653 -0.134279
      ESP Fit Center  151 is at  -6.443275 -2.459940 -1.114279
      ESP Fit Center  152 is at  -6.767452 -3.457653 -1.114279
      ESP Fit Center  153 is at  -6.443275 -4.455365 -1.114279
      ESP Fit Center  154 is at  -4.090042 -3.457653 -1.831689
      ESP Fit Center  155 is at  -6.050042 -3.457653 -1.831689
      ESP Fit Center  156 is at  -5.560042 -4.306358 -1.831689
      ESP Fit Center  157 is at  -4.580042 -4.306358 -1.831689
      ESP Fit Center  158 is at  -5.070042 -3.457653 -2.094279
      ESP Fit Center  159 is at  -5.760711 -4.223127  2.816150
      ESP Fit Center  160 is at  -5.206691 -5.085200  2.816150
      ESP Fit Center  161 is at  -1.915726 -3.710754  1.766150
      ESP Fit Center  162 is at  -2.197073 -3.710754  0.716150
      ESP Fit Center  163 is at  -3.431733 -4.264476  4.055526
      ESP Fit Center  164 is at  -2.444254 -4.264476  3.734675
      ESP Fit Center  165 is at  -4.230621 -4.844902  3.734675
      ESP Fit Center  166 is at  -3.126585 -5.203625  3.734675
      ESP Fit Center  167 is at  -1.833958 -4.264476  2.894675
      ESP Fit Center  168 is at  -2.207767 -3.237446  2.894675
      ESP Fit Center  169 is at  -4.230621 -5.648190  2.894675
      ESP Fit Center  170 is at  -3.154282 -5.837977  2.894675
      ESP Fit Center  171 is at  -2.207767 -5.291506  2.894675
      ESP Fit Center  172 is at  -1.833958 -4.264476  1.856378
      ESP Fit Center  173 is at  -2.207767 -5.291506  1.856378
      ESP Fit Center  174 is at  -5.630639 -1.005531  3.279870
      ESP Fit Center  175 is at  -5.630639 -3.754424  3.279870
      ESP Fit Center  176 is at  -6.327805 -1.764742  3.598737
      ESP Fit Center  177 is at  -6.327805 -2.925594  3.598737
      ESP Fit Center  178 is at  -7.030335 -1.798697  2.758737
      ESP Fit Center  179 is at  -7.030335 -2.891639  2.758737
      ESP Fit Center  180 is at  -6.327805 -3.728882  2.758737
      ESP Fit Center  181 is at  -7.030335 -1.798697  1.720440
      ESP Fit Center  182 is at  -7.030335 -2.891639  1.720440
      ESP Fit Center  183 is at  -6.327805 -3.728882  1.720440
      ESP Fit Center  184 is at  -6.327805 -1.764742  0.880440
      ESP Fit Center  185 is at  -4.097357 -2.242491  4.934876
      ESP Fit Center  186 is at  -3.109878 -2.242491  4.614025
      ESP Fit Center  187 is at  -3.792209 -1.303342  4.614025
      ESP Fit Center  188 is at  -4.896244 -1.662065  4.614025
      ESP Fit Center  189 is at  -4.896244 -2.822916  4.614025
      ESP Fit Center  190 is at  -3.792209 -3.181639  4.614025
      ESP Fit Center  191 is at  -2.499582 -2.242491  3.774025
      ESP Fit Center  192 is at  -2.873390 -1.215461  3.774025
      ESP Fit Center  193 is at  -3.819906 -0.668989  3.774025
      ESP Fit Center  194 is at  -4.896244 -0.858777  3.774025
      ESP Fit Center  195 is at  -2.873390 -3.269521  3.774025
      ESP Fit Center  196 is at  -3.382975 -0.308258  3.210433
      ESP Fit Center  197 is at  -2.378027 -0.234346  2.441780
      ESP Fit Center  198 is at  -1.824543 -1.291610  2.517374
      ESP Fit Center  199 is at  -2.314543 -2.140315  2.517374
      ESP Fit Center  200 is at  -1.107133 -1.291610  1.799964
      ESP Fit Center  201 is at  -1.431309 -2.289322  1.799964
      ESP Fit Center  202 is at  -0.844543 -1.291610  0.819964
      ESP Fit Center  203 is at  -1.824543 -2.989020  0.819964
      ESP Fit Center  204 is at  -1.107133 -2.271610  0.819964
      ESP Fit Center  205 is at  -4.692027 -0.149341  3.356027
      ESP Fit Center  206 is at  -4.167027  0.759986  3.074681
      ESP Fit Center  207 is at  -5.217027  0.759986  3.074681
      ESP Fit Center  208 is at  -6.437012 -0.661715  0.206027
      ESP Fit Center  209 is at  -5.882991 -1.523787  0.206027
      ESP Fit Center  210 is at  -5.603201 -0.115190  3.369727
      ESP Fit Center  211 is at  -6.402088  0.465235  3.048876
      ESP Fit Center  212 is at  -6.402088 -0.695616  3.048876
      ESP Fit Center  213 is at  -7.104618  0.431281  2.208876
      ESP Fit Center  214 is at  -7.104618 -0.661661  2.208876
      ESP Fit Center  215 is at  -7.104618  0.431281  1.170579
      ESP Fit Center  216 is at  -7.104618 -0.661661  1.170579
      ESP Fit Center  217 is at  -3.154143  1.020636  2.351319
      ESP Fit Center  218 is at  -6.627493  0.697643  0.508728
      ESP Fit Center  219 is at  -6.627493  2.661782 -0.331272
      ESP Fit Center  220 is at  -7.330023  1.824539 -0.331272
      ESP Fit Center  221 is at  -7.330023  0.731597 -0.331272
      ESP Fit Center  222 is at  -6.627493 -0.105645 -0.331272
      ESP Fit Center  223 is at  -6.627493  2.661782 -1.369569
      ESP Fit Center  224 is at  -7.330023  1.824539 -1.369569
      ESP Fit Center  225 is at  -7.330023  0.731597 -1.369569
      ESP Fit Center  226 is at  -6.627493  1.858494 -2.209569
      ESP Fit Center  227 is at  -3.091924  3.037819 -0.849742
      ESP Fit Center  228 is at  -4.038440  3.584290 -0.849742
      ESP Fit Center  229 is at  -5.114778  3.394503 -0.849742
      ESP Fit Center  230 is at  -2.718115  2.010789 -1.888039
      ESP Fit Center  231 is at  -3.091924  3.037819 -1.888039
      ESP Fit Center  232 is at  -4.038440  3.584290 -1.888039
      ESP Fit Center  233 is at  -5.114778  3.394503 -1.888039
      ESP Fit Center  234 is at  -3.328411  2.010789 -2.728039
      ESP Fit Center  235 is at  -4.010742  2.949938 -2.728039
      ESP Fit Center  236 is at  -5.114778  2.591215 -2.728039
      ESP Fit Center  237 is at  -4.315890  2.010789 -3.048890
      ESP Fit Center  238 is at  -3.969631  0.859030 -3.646418
      ESP Fit Center  239 is at  -1.511394 -0.675160 -2.942290
      ESP Fit Center  240 is at  -1.800099  0.308078 -2.942290
      ESP Fit Center  241 is at  -2.574552  0.979145 -2.942290
      ESP Fit Center  242 is at  -2.805048  0.234166 -3.710943
      ESP Fit Center  243 is at  -3.796356 -3.426052 -1.743601
      ESP Fit Center  244 is at  -4.282205 -3.589445 -2.793601
      ESP Fit Center  245 is at  -2.007586 -0.642672 -3.843601
      ESP Fit Center  246 is at  -2.782038  0.028395 -3.843601
      ESP Fit Center  247 is at  -2.487534 -1.625910 -4.612254
      ESP Fit Center  248 is at  -3.012534 -0.716584 -4.612254
      ESP Fit Center  249 is at  -3.606613 -3.745865 -2.565729
      ESP Fit Center  250 is at  -2.530275 -3.935653 -2.565729
      ESP Fit Center  251 is at  -1.209950 -2.362152 -3.604026
      ESP Fit Center  252 is at  -1.583759 -1.335122 -3.604026
      ESP Fit Center  253 is at  -3.606613 -3.745865 -3.604026
      ESP Fit Center  254 is at  -2.530275 -3.935653 -3.604026
      ESP Fit Center  255 is at  -1.583759 -3.389181 -3.604026
      ESP Fit Center  256 is at  -1.820246 -2.362152 -4.444026
      ESP Fit Center  257 is at  -3.606613 -2.942577 -4.444026
      ESP Fit Center  258 is at  -2.502577 -3.301300 -4.444026
      ESP Fit Center  259 is at  -2.807725 -2.362152 -4.764877
      ESP Fit Center  260 is at  -5.964235 -2.941854 -2.196715
      ESP Fit Center  261 is at  -5.032091 -3.367550 -2.196715
      ESP Fit Center  262 is at  -6.812248 -2.069970 -3.246715
      ESP Fit Center  263 is at  -4.520143 -3.652096 -3.246715
      ESP Fit Center  264 is at  -4.017774  0.086898 -4.296715
      ESP Fit Center  265 is at  -3.723270 -1.567407 -5.065369
      ESP Fit Center  266 is at  -4.248270 -0.658081 -5.065369
      ESP Fit Center  267 is at  -5.298270 -0.658081 -5.065369
      ESP Fit Center  268 is at  -6.652362 -2.723517 -3.439281
      ESP Fit Center  269 is at  -5.949832 -3.560759 -3.439281
      ESP Fit Center  270 is at  -4.873494 -3.750547 -3.439281
      ESP Fit Center  271 is at  -6.652362 -1.630574 -4.477578
      ESP Fit Center  272 is at  -6.652362 -2.723517 -4.477578
      ESP Fit Center  273 is at  -5.949832 -3.560759 -4.477578
      ESP Fit Center  274 is at  -4.873494 -3.750547 -4.477578
      ESP Fit Center  275 is at  -3.926978 -3.204076 -4.477578
      ESP Fit Center  276 is at  -4.163465 -2.177046 -5.317578
      ESP Fit Center  277 is at  -5.949832 -1.596620 -5.317578
      ESP Fit Center  278 is at  -5.949832 -2.757471 -5.317578
      ESP Fit Center  279 is at  -4.845796 -3.116194 -5.317578
      ESP Fit Center  280 is at  -5.150944 -2.177046 -5.638430
      ESP Fit Center  281 is at  -6.470377 -0.591418 -0.851580
      ESP Fit Center  282 is at  -5.945377 -1.500745 -0.851580
      ESP Fit Center  283 is at  -6.611341 -1.965865 -1.620234
      ESP Fit Center  284 is at  -6.165047  1.372116 -2.670234
      ESP Fit Center  285 is at  -6.992249 -1.983976 -2.670234
      ESP Fit Center  286 is at  -4.664881  1.062887 -3.720234
      ESP Fit Center  287 is at  -5.679198  1.208724 -3.720234
      ESP Fit Center  288 is at  -4.895377  0.317908 -4.488887
      ESP Fit Center  289 is at  -5.945377  0.317908 -4.488887
      ESP Fit Center  290 is at  -6.470377 -0.591418 -4.488887
      ESP Fit Center  291 is at  -7.241205  0.288117 -1.451370
      ESP Fit Center  292 is at  -7.241205 -0.872735 -1.451370
      ESP Fit Center  293 is at  -7.241205  1.091405 -2.291370
      ESP Fit Center  294 is at  -7.943735  0.254162 -2.291370
      ESP Fit Center  295 is at  -7.943735 -0.838780 -2.291370
      ESP Fit Center  296 is at  -7.241205 -1.676023 -2.291370
      ESP Fit Center  297 is at  -6.164867  1.281192 -3.329667
      ESP Fit Center  298 is at  -7.241205  1.091405 -3.329667
      ESP Fit Center  299 is at  -7.943735  0.254162 -3.329667
      ESP Fit Center  300 is at  -7.943735 -0.838780 -3.329667
      ESP Fit Center  301 is at  -7.241205 -1.676023 -3.329667
      ESP Fit Center  302 is at  -7.241205  0.288117 -4.169667
      ESP Fit Center  303 is at  -7.241205 -0.872735 -4.169667
      ESP Fit Center  304 is at  -6.442318 -0.292309 -4.490518
      ESP Fit Center  305 is at  -4.136335  1.341092  3.081574
      ESP Fit Center  306 is at  -5.852300  3.624865  0.212921
      ESP Fit Center  307 is at  -5.754256  2.243042  3.776815
      ESP Fit Center  308 is at  -4.774256  2.243042  3.514225
      ESP Fit Center  309 is at  -5.264256  3.091747  3.514225
      ESP Fit Center  310 is at  -6.244256  3.091747  3.514225
      ESP Fit Center  311 is at  -6.734256  2.243042  3.514225
      ESP Fit Center  312 is at  -6.244256  1.394337  3.514225
      ESP Fit Center  313 is at  -5.264256  1.394337  3.514225
      ESP Fit Center  314 is at  -7.127490  3.240755  2.796815
      ESP Fit Center  315 is at  -7.451666  2.243042  2.796815
      ESP Fit Center  316 is at  -7.127490  1.245330  2.796815
      ESP Fit Center  317 is at  -7.451666  3.223042  1.816815
      ESP Fit Center  318 is at  -7.714256  2.243042  1.816815
      ESP Fit Center  319 is at  -7.451666  1.263042  1.816815
      ESP Fit Center  320 is at  -7.127490  3.240755  0.836815
      ESP Fit Center  321 is at  -7.451666  2.243042  0.836815
      ESP Fit Center  322 is at  -7.127490  1.245330  0.836815
      ESP Fit Center  323 is at  -6.244256  3.091747  0.119405
      ESP Fit Center  324 is at  -2.717364  3.211350  3.196450
      ESP Fit Center  325 is at  -3.242364  2.302023  3.196450
      ESP Fit Center  326 is at  -1.948710  3.211350  2.427797
      ESP Fit Center  327 is at  -3.011868  1.557045  2.427797
      ESP Fit Center  328 is at  -2.237415  2.228112  2.427797
      ESP Fit Center  329 is at  -3.242364  4.120677 -0.440857
      ESP Fit Center  330 is at  -4.292364  4.120677 -0.440857
      ESP Fit Center  331 is at  -1.870484  3.118006  2.305469
      ESP Fit Center  332 is at  -1.633997  4.145036  1.465469
      ESP Fit Center  333 is at  -2.552816  4.057154 -0.412828
      ESP Fit Center  334 is at  -2.857964  3.118006 -0.733679
      ESP Fit Center  335 is at  -5.200978  4.491312  3.685191
      ESP Fit Center  336 is at  -4.409799  6.291454  2.916537
      ESP Fit Center  337 is at  -2.050978  4.491312  1.866537
      ESP Fit Center  338 is at  -4.895648  6.454846  1.866537
      ESP Fit Center  339 is at  -5.200978  4.491312  0.047884
      ESP Fit Center  340 is at  -6.033106  5.183695  3.272900
      ESP Fit Center  341 is at  -6.033106  4.022844  3.272900
      ESP Fit Center  342 is at  -6.033106  5.986983  2.432900
      ESP Fit Center  343 is at  -6.735635  5.149741  2.432900
      ESP Fit Center  344 is at  -6.735635  4.056799  2.432900
      ESP Fit Center  345 is at  -6.033106  5.986983  1.394603
      ESP Fit Center  346 is at  -6.735635  5.149741  1.394603
      ESP Fit Center  347 is at  -6.735635  4.056799  1.394603
      ESP Fit Center  348 is at  -6.033106  5.183695  0.554603
      ESP Fit Center  349 is at  -6.033106  4.022844  0.554603
      ESP Fit Center  350 is at  -3.731190  4.660312  4.538678
      ESP Fit Center  351 is at  -2.743711  4.660312  4.217826
      ESP Fit Center  352 is at  -3.426042  5.599461  4.217826
      ESP Fit Center  353 is at  -4.530078  5.240738  4.217826
      ESP Fit Center  354 is at  -4.530078  4.079886  4.217826
      ESP Fit Center  355 is at  -3.426042  3.721164  4.217826
      ESP Fit Center  356 is at  -2.133415  4.660312  3.377826
      ESP Fit Center  357 is at  -2.507224  5.687342  3.377826
      ESP Fit Center  358 is at  -3.453739  6.233813  3.377826
      ESP Fit Center  359 is at  -4.530078  6.044026  3.377826
      ESP Fit Center  360 is at  -2.507224  3.633282  3.377826
      ESP Fit Center  361 is at  -2.168997  5.189741  1.643145
      ESP Fit Center  362 is at  -2.542805  6.216771  1.643145
      ESP Fit Center  363 is at  -3.489321  6.763242  1.643145
      ESP Fit Center  364 is at  -4.565659  6.573455  1.643145
      ESP Fit Center  365 is at  -2.168997  5.189741  0.604848
      ESP Fit Center  366 is at  -2.542805  6.216771  0.604848
      ESP Fit Center  367 is at  -3.489321  6.763242  0.604848
      ESP Fit Center  368 is at  -4.565659  6.573455  0.604848
      ESP Fit Center  369 is at  -2.779293  5.189741 -0.235152
      ESP Fit Center  370 is at  -3.461624  6.128890 -0.235152
      ESP Fit Center  371 is at  -4.565659  5.770167 -0.235152
      ESP Fit Center  372 is at  -4.565659  4.609315 -0.235152
      ESP Fit Center  373 is at  -3.766772  5.189741 -0.556004
      ESP Fit Center  374 is at   1.715538  8.864086 -0.880111
      ESP Fit Center  375 is at   2.634357  8.951968 -1.720111
      ESP Fit Center  376 is at   1.687841  9.498439 -1.720111
      ESP Fit Center  377 is at   0.611503  9.308651 -1.720111
      ESP Fit Center  378 is at  -0.091027  8.471409 -1.720111
      ESP Fit Center  379 is at   2.634357  8.951968 -2.758408
      ESP Fit Center  380 is at   1.687841  9.498439 -2.758408
      ESP Fit Center  381 is at   0.611503  9.308651 -2.758408
[...]
 2673 Fit       0.100086
 2674 Fit       0.101185
 2675 Fit       0.105481
 2676 Fit       0.108937
 2677 Fit       0.105047
 2678 Fit       0.104966
 2679 Fit       0.108379
 2680 Fit       0.114981
 2681 Fit       0.107610
 2682 Fit       0.105586
 2683 Fit       0.105665
 2684 Fit       0.108378
 2685 Fit       0.113006
 2686 Fit       0.108190
 2687 Fit       0.104931
 2688 Fit       0.105101
 2689 Fit       0.105931
 2690 Fit       0.108414
 2691 Fit       0.105384
 2692 Fit       0.087220
 2693 Fit       0.079143
 2694 Fit       0.089183
 2695 Fit       0.084927
 2696 Fit       0.098992
 2697 Fit       0.091346
 2698 Fit       0.089581
 2699 Fit       0.090725
 2700 Fit       0.089408
 2701 Fit       0.092542
 2702 Fit       0.107604
 2703 Fit       0.095451
 2704 Fit       0.091116
 2705 Fit       0.089006
 2706 Fit       0.091937
 2707 Fit       0.089033
 2708 Fit       0.088450
 2709 Fit       0.089324
 2710 Fit       0.092351
 2711 Fit       0.089460
 2712 Fit       0.088452
 2713 Fit       0.089371
 2714 Fit       0.092731
 2715 Fit       0.089765
 2716 Fit       0.090672
 2717 Fit       0.095205
 2718 Fit       0.093980
 2719 Fit       0.097803
 2720 Fit       0.077303
 2721 Fit       0.088029
 2722 Fit       0.053798
 2723 Fit       0.063504
 2724 Fit       0.055759
 2725 Fit       0.046789
 2726 Fit       0.047306
 2727 Fit       0.058846
 2728 Fit       0.066975
 2729 Fit       0.045379
 2730 Fit       0.041192
 2731 Fit       0.044009
 2732 Fit       0.053905
 2733 Fit       0.071169
 2734 Fit       0.041305
 2735 Fit       0.041353
 2736 Fit       0.047738
 2737 Fit       0.062357
 2738 Fit       0.043809
 2739 Fit       0.044445
 2740 Fit       0.050610
 2741 Fit       0.064019
 2742 Fit       0.051116
 2743 Fit       0.051621
 2744 Fit       0.059027
 2745 Fit       0.074521
 2746 Fit       0.067156
 2747 Fit       0.063211
 2748 Fit       0.076786
 2749 Fit       0.090107
 2750 Fit       0.085276
 2751 Fit       0.084931
 2752 Fit       0.058892
 2753 Fit       0.056360
 2754 Fit       0.051028
 2755 Fit       0.058666
 2756 Fit       0.058310
 2757 Fit       0.080818
 2758 Fit       0.062422
 2759 Fit       0.057697
 2760 Fit       0.057317
 2761 Fit       0.057825
 2762 Fit       0.058927
 2763 Fit       0.060349
 2764 Fit       0.062747
 2765 Fit       0.071480
 2766 Fit       0.082576
 2767 Fit       0.053312
 2768 Fit       0.056517
 2769 Fit       0.052654
 2770 Fit       0.057205
 2771 Fit       0.054718
 2772 Fit       0.048988
 2773 Fit       0.059097
 2774 Fit       0.057283
 2775 Fit       0.052696
 2776 Fit       0.062884
 2777 Fit       0.061649
 2778 Fit       0.065605
 2779 Fit       0.071245
 2780 Fit       0.065163
 2781 Fit       0.061587
 2782 Fit       0.061212
 2783 Fit       0.065324
 2784 Fit       0.071539
 2785 Fit       0.080103
 2786 Fit       0.070592
 2787 Fit       0.063366
 2788 Fit       0.060413
 2789 Fit       0.059669
 2790 Fit       0.069730
 2791 Fit       0.077526
 2792 Fit       0.082185
 2793 Fit       0.076553
 2794 Fit       0.064738
 2795 Fit       0.060593
 2796 Fit       0.060408
 2797 Fit       0.053066
 2798 Fit       0.054995
 2799 Fit       0.052990
 2800 Fit       0.057517
 2801 Fit       0.061162
 2802 Fit       0.055196
 2803 Fit       0.060145
 2804 Fit       0.064336
 2805 Fit       0.081237
 2806 Fit       0.067770
 2807 Fit       0.069457
 2808 Fit       0.077643
 2809 Fit       0.080590
 2810 Fit       0.037238
 2811 Fit       0.032412
 2812 Fit       0.042044
 2813 Fit       0.040160
 2814 Fit       0.038283
 2815 Fit       0.035365
 2816 Fit       0.043629
 2817 Fit       0.042664
 2818 Fit       0.042173
 2819 Fit       0.041795
 2820 Fit       0.041956
 2821 Fit       0.044720
 2822 Fit       0.044706
 2823 Fit       0.045640
 2824 Fit       0.048387
 2825 Fit       0.047983
 2826 Fit       0.044750
 2827 Fit       0.035765
 2828 Fit       0.043465
 2829 Fit       0.045758
 2830 Fit       0.048141
 2831 Fit       0.045514
 2832 Fit       0.053353
 2833 Fit       0.051251
 2834 Fit       0.047701
 2835 Fit       0.046516
 2836 Fit       0.047538
 2837 Fit       0.049853
 2838 Fit       0.053374
 2839 Fit       0.052046
 2840 Fit       0.056854
 2841 Fit       0.063460
 2842 Fit       0.068839
 2843 Fit       0.069622
 2844 Fit       0.064569
 2845 Fit       0.058339
 2846 Fit       0.053386
 2847 Fit       0.051106
 2848 Fit       0.052770
 2849 Fit       0.057679
 2850 Fit       0.061051
 2851 Fit       0.058118
 2852 Fit       0.055138
 2853 Fit       0.051148
 2854 Fit       0.052135
 2855 Fit       0.048537
 2856 Fit       0.044515
 2857 Fit       0.053424
 2858 Fit       0.052745
 2859 Fit       0.049301
 2860 Fit       0.046333
 2861 Fit       0.056194
 2862 Fit       0.052606
 2863 Fit       0.049142
 2864 Fit       0.046652
 2865 Fit       0.057138
 2866 Fit       0.052125
 2867 Fit       0.048764
 2868 Fit       0.057264
 2869 Fit       0.052074
 2870 Fit       0.047944
 2871 Fit       0.065570
 2872 Fit       0.044823
 2873 Fit       0.053458
 2874 Fit       0.066024
 2875 Fit       0.067495
 2876 Fit       0.046224
 2877 Fit       0.043463
 2878 Fit       0.032922
 2879 Fit       0.033691
 2880 Fit       0.047588
 2881 Fit       0.042769
 2882 Fit       0.033067
 2883 Fit       0.026384
 2884 Fit       0.023931
 2885 Fit       0.026370
 2886 Fit       0.034345
 2887 Fit       0.048902
 2888 Fit       0.037012
 2889 Fit       0.028398
 2890 Fit       0.022882
 2891 Fit       0.020949
 2892 Fit       0.023046
 2893 Fit       0.029656
 2894 Fit       0.042138
 2895 Fit       0.024311
 2896 Fit       0.022548
 2897 Fit       0.024783
 2898 Fit       0.031183
 2899 Fit       0.042464
 2900 Fit       0.028639
 2901 Fit       0.032585
 2902 Fit       0.041948
 2903 Fit       0.056033
 2904 Fit       0.040906
 2905 Fit       0.070106
 2906 Fit       0.069056
 2907 Fit       0.069281
 2908 Fit       0.074027
 2909 Fit       0.070574
 2910 Fit       0.075660
 2911 Fit       0.068232
 2912 Fit       0.089853
 2913 Fit       0.081357
 2914 Fit       0.087563
 2915 Fit       0.080990
 2916 Fit       0.093297
 2917 Fit       0.080919
 2918 Fit       0.090716
 2919 Fit       0.099912
 2920 Fit       0.079735
 2921 Fit       0.080417
 2922 Fit       0.087737
 2923 Fit       0.091790
 2924 Fit       0.082514
 2925 Fit       0.074857
 2926 Fit       0.090370
 2927 Fit       0.087267
 2928 Fit       0.051504
 2929 Fit       0.050363
 2930 Fit       0.047095
 2931 Fit       0.050138
 2932 Fit       0.052012
 2933 Fit       0.064974
 2934 Fit       0.054443
 2935 Fit       0.051258
 2936 Fit       0.054389
 2937 Fit       0.050295
 2938 Fit       0.083422
 2939 Fit       0.088212
 2940 Fit       0.088532
 2941 Fit       0.075605
 2942 Fit       0.082934
 2943 Fit       0.091062
 2944 Fit       0.093236
 2945 Fit       0.067208
 2946 Fit       0.079225
 2947 Fit       0.049737
 2948 Fit       0.054903
 2949 Fit       0.056571
 2950 Fit       0.054728
 2951 Fit       0.049893
 2952 Fit       0.052224
 2953 Fit       0.054136
 2954 Fit       0.053602
 2955 Fit       0.052798
 2956 Fit       0.052684
 2957 Fit       0.053766
 2958 Fit       0.054153
 2959 Fit       0.052037
 2960 Fit       0.055760
 2961 Fit       0.048266
 2962 Fit       0.055915
 2963 Fit       0.062082
 2964 Fit       0.065420
 2965 Fit       0.044371
 2966 Fit       0.052399
 2967 Fit       0.056712
 2968 Fit       0.061506
 2969 Fit       0.068756
 2970 Fit       0.076455
 2971 Fit       0.052950
 2972 Fit       0.055523
 2973 Fit       0.058088
 2974 Fit       0.062910
 2975 Fit       0.073233
 2976 Fit       0.054518
 2977 Fit       0.057635
 2978 Fit       0.070930
 2979 Fit       0.037915
 2980 Fit       0.032716
 2981 Fit       0.034050
 2982 Fit       0.041676
 2983 Fit       0.046955
 2984 Fit       0.047345
 2985 Fit       0.039855
 2986 Fit       0.031099
 2987 Fit       0.029915
 2988 Fit       0.034803
 2989 Fit       0.044654
 2990 Fit       0.059874
 2991 Fit       0.046774
 2992 Fit       0.037228
 2993 Fit       0.033027
 2994 Fit       0.030802
 2995 Fit       0.035109
 2996 Fit       0.040699
 2997 Fit       0.038276
 2998 Fit       0.035484
 2999 Fit       0.039864
 3000 Fit       0.045348
 3001 Fit       0.043822
 3002 Fit       0.050575
 3003 Fit       0.078627
 3004 Fit       0.088566
 3005 Fit       0.084963
 3006 Fit       0.089804
 3007 Fit       0.096802
 3008 Fit       0.100839
 3009 Fit       0.102808
 3010 Fit       0.095347
 3011 Fit       0.072731
 3012 Fit       0.065660
 3013 Fit       0.059553
 3014 Fit       0.070168
 3015 Fit       0.078413
 3016 Fit       0.083700
 3017 Fit       0.083185
 3018 Fit       0.075349
 3019 Fit       0.081888
 3020 Fit       0.087702
 3021 Fit       0.092155
 3022 Fit       0.102868
 3023 Fit       0.104809
 3024 Fit       0.108871
 3025 Fit       0.104759
 3026 Fit       0.102404
 3027 Fit       0.089866
 3028 Fit       0.055638
 3029 Fit       0.076389
 3030 Fit       0.065378
 3031 Fit       0.058116
 3032 Fit       0.100657
 3033 Fit       0.090377
 3034 Fit       0.081409
 3035 Fit       0.095526
 3036 Fit       0.078566
 3037 Fit       0.083675
 3038 Fit       0.081059
 3039 Fit       0.073930
 3040 Fit       0.081297
 3041 Fit       0.089404
 3042 Fit       0.089514
 3043 Fit       0.087280
 3044 Fit       0.096815
 3045 Fit       0.093895
 3046 Fit       0.091374
 3047 Fit       0.101116
 3048 Fit       0.094931
 3049 Fit       0.090353
 3050 Fit       0.080017
 3051 Fit       0.072946
 3052 Fit       0.082408
 3053 Fit       0.074785
 3054 Fit       0.071094
 3055 Fit       0.085577
 3056 Fit       0.076112
 3057 Fit       0.071926
 3058 Fit       0.070659
 3059 Fit       0.079671
 3060 Fit       0.072439
 3061 Fit       0.069801
 3062 Fit       0.069648
 3063 Fit       0.071040
 3064 Fit       0.065406
 3065 Fit       0.069626
 3066 Fit       0.073123
 3067 Fit       0.069142
 3068 Fit       0.070047
 3069 Fit       0.071877
 3070 Fit       0.074003
 3071 Fit       0.071899
 3072 Fit       0.073293
 3073 Fit       0.066768
 3074 Fit       0.059421
 3075 Fit       0.067299
 3076 Fit       0.061971
 3077 Fit       0.052089
 3078 Fit       0.072664
 3079 Fit       0.068926
 3080 Fit       0.061046
 3081 Fit       0.073064
 3082 Fit       0.057009
 3083 Fit       0.065448
 3084 Fit       0.069477
 3085 Fit       0.059830
 3086 Fit       0.064967
 3087 Fit       0.071297
 3088 Fit       0.062718
 3089 Fit       0.059589
 3090 Fit       0.076552
 3091 Fit       0.067886
 3092 Fit       0.058549
 3093 Fit       0.052681
 3094 Fit       0.052324
 3095 Fit       0.078916
 3096 Fit       0.066379
 3097 Fit       0.055737
 3098 Fit       0.050539
 3099 Fit       0.051304
 3100 Fit       0.071315
 3101 Fit       0.057310
 3102 Fit       0.053784
 3103 Fit       0.063826
 3104 Fit       0.067318
 3105 Fit       0.069598
 3106 Fit       0.073674
 3107 Fit       0.063196
 3108 Fit       0.064262
 3109 Fit       0.067679
 3110 Fit       0.077359
 3111 Fit       0.077280
 3112 Fit       0.075351
 3113 Fit       0.075199
 3114 Fit       0.075628
 3115 Fit       0.075279
 3116 Fit       0.073114
 3117 Fit       0.065710
 3118 Fit       0.075944
 3119 Fit       0.075290
 3120 Fit       0.075431
 3121 Fit       0.076401
 3122 Fit       0.075437
 3123 Fit       0.062423
 3124 Fit       0.065297
 3125 Fit       0.059064
 3126 Fit       0.054594
 3127 Fit       0.047264
 3128 Fit       0.068482
 3129 Fit       0.064699
 3130 Fit       0.059987
 3131 Fit       0.063653
 3132 Fit       0.069958
 3133 Fit       0.058353
 3134 Fit       0.058218
 3135 Fit       0.052489
 3136 Fit       0.053908
 3137 Fit       0.056087
 3138 Fit       0.052399
 3139 Fit       0.051837
 3140 Fit       0.043078
 3141 Fit       0.041847
 3142 Fit       0.043388
 3143 Fit       0.059527
 3144 Fit       0.056280
 3145 Fit       0.057569
 3146 Fit       0.058037
 3147 Fit       0.064388
 3148 Fit       0.059699
 3149 Fit       0.056700
 3150 Fit       0.054944
 3151 Fit       0.065217
 3152 Fit       0.056810
 3153 Fit       0.051561
 3154 Fit       0.062118
 3155 Fit       0.040698
 3156 Fit       0.031035
 3157 Fit       0.030400
 3158 Fit       0.030306
 3159 Fit       0.053516
 3160 Fit       0.043732
 3161 Fit       0.037064
 3162 Fit       0.033199
 3163 Fit       0.031813
 3164 Fit       0.018605
 3165 Fit       0.018223
 3166 Fit       0.017557
 3167 Fit       0.058152
 3168 Fit       0.046285
 3169 Fit       0.035420
 3170 Fit       0.027531
 3171 Fit       0.022410
 3172 Fit       0.019704
 3173 Fit       0.012468
 3174 Fit       0.010891
 3175 Fit       0.007022
 3176 Fit       0.036603
 3177 Fit       0.031353
 3178 Fit       0.024212
 3179 Fit       0.018285
 3180 Fit       0.014494
 3181 Fit       0.009913
 3182 Fit       0.005291
 3183 Fit       0.015798
 3184 Fit       0.019408
 3185 Fit       0.014347
 3186 Fit       0.010319
 3187 Fit       0.071682
 3188 Fit       0.069149
 3189 Fit       0.057516
 3190 Fit       0.046348
 3191 Fit       0.048441
 3192 Fit       0.030564
 3193 Fit       0.068427
 3194 Fit       0.085085
 3195 Fit       0.096453
 3196 Fit       0.062420
 3197 Fit       0.076467
 3198 Fit       0.071386
 3199 Fit       0.092626
 3200 Fit       0.088113
 3201 Fit       0.076103
 3202 Fit       0.096531
 3203 Fit       0.105048
 3204 Fit       0.099133
 3205 Fit       0.120724
 3206 Fit       0.113113
 3207 Fit       0.098531
 3208 Fit       0.108865
 3209 Fit       0.090764
 3210 Fit       0.110704
 3211 Fit       0.092854
 3212 Fit       0.083698
 3213 Fit       0.122454
 3214 Fit       0.109507
 3215 Fit       0.103105
 3216 Fit       0.095664
 3217 Fit       0.105882
 3218 Fit       0.099043
 3219 Fit       0.090648
 3220 Fit       0.092085
 3221 Fit       0.110835
 3222 Fit       0.100893
 3223 Fit       0.111473
 3224 Fit       0.104101
 3225 Fit       0.097994
 3226 Fit       0.118686
 3227 Fit       0.109942
 3228 Fit       0.103874
 3229 Fit       0.099950
 3230 Fit       0.115104
 3231 Fit       0.107274
 3232 Fit       0.102135
 3233 Fit       0.091755
 3234 Fit       0.081296
 3235 Fit       0.090077
 3236 Fit       0.086381
 3237 Fit       0.075664
 3238 Fit       0.076164
 3239 Fit       0.082926
 3240 Fit       0.085477
 3241 Fit       0.072577
 3242 Fit       0.075533
 3243 Fit       0.070521
 3244 Fit       0.064279
 3245 Fit       0.014289
 3246 Fit       0.040482
 3247 Fit       0.044798
 3248 Fit       0.049071
 3249 Fit       0.051308
 3250 Fit       0.049165
 3251 Fit       0.004531
 3252 Fit       0.010775
 3253 Fit       0.015752
 3254 Fit       0.019550
 3255 Fit       0.023217
 3256 Fit       0.027666
 3257 Fit       0.031591
 3258 Fit       0.033788
 3259 Fit       0.032510
 3260 Fit       0.026842
 3261 Fit       0.017206
 3262 Fit       0.008453
 3263 Fit       0.006994
 3264 Fit       0.011121
 3265 Fit       0.015046
 3266 Fit       0.019779
 3267 Fit       0.022225
 3268 Fit       0.018453
 3269 Fit       0.011721
 3270 Fit       0.014905
 3271 Fit       0.063386
 3272 Fit       0.070528
 3273 Fit       0.052251
 3274 Fit       0.052096
 3275 Fit       0.035418
 3276 Fit       0.022744
 3277 Fit       0.065998
 3278 Fit       0.057350
 3279 Fit       0.071692
 3280 Fit       0.065070
 3281 Fit       0.048678
 3282 Fit       0.047268
 3283 Fit       0.046974
 3284 Fit       0.049008
 3285 Fit       0.051484
 3286 Fit       0.055901
 3287 Fit       0.050166
 3288 Fit       0.054914
 3289 Fit       0.047947
 3290 Fit       0.036016
 3291 Fit       0.058841
 3292 Fit       0.067200
 3293 Fit       0.064523
 3294 Fit       0.048255
 3295 Fit       0.054166
 3296 Fit       0.057519
 3297 Fit       0.053220
 3298 Fit       0.055544
 3299 Fit       0.053257
 3300 Fit       0.052348
 3301 Fit       0.049436
 3302 Fit       0.061519
 3303 Fit       0.051892
 3304 Fit       0.051222
 3305 Fit       0.051665
 3306 Fit       0.053041
 3307 Fit       0.054652
 3308 Fit       0.049460
 3309 Fit       0.050913
 3310 Fit       0.053720
 3311 Fit       0.044956
 3312 Fit       0.040780
 3313 Fit       0.043807
 3314 Fit       0.046564
 3315 Fit       0.026758
 3316 Fit       0.035981
 3317 Fit       0.037430
 3318 Fit       0.041209
 3319 Fit       0.043902
 3320 Fit       0.045846
 3321 Fit       0.017814
 3322 Fit       0.030724
 3323 Fit       0.033649
 3324 Fit       0.037931
 3325 Fit       0.035893
 3326 Fit       0.022780
 3327 Fit       0.028121
 -----------------------------------------------------------------
 Leave Link  602 at Mon Nov  2 22:12:49 2015, MaxMem=  786432000 cpu:      17.0

 Test job not archived.
 1\1\GINC-C6A-S3\SP\RB3LYP\6-31G(d)\C31H47N14O10S1Zn1(1+)\ROOT\02-Nov-2
 015\0\\#N B3LYP/6-31G* Integral=(Grid=UltraFine) Pop(MK,ReadRadii) SCF
 =XQC IOp(6/33=2)\\CLR\\1,1\H,0,15.718,55.854,36.091\C,0,14.811,55.265,
 35.954\H,0,15.063,54.217,35.793\H,0,14.238,55.367,36.875\C,0,14.047,55
 .763,34.73\O,0,12.816,55.813,34.742\N,0,14.659,56.133,33.607\H,0,15.66
 6,56.098,33.546\C,0,13.906,56.582,32.425\H,0,13.308,57.45,32.702\H,0,1
 4.614,56.901,31.661\C,0,12.994,55.519,31.813\O,0,13.29,54.311,31.869\N
 ,0,11.851,55.931,31.267\H,0,11.6,56.909,31.263\C,0,10.979,54.97,30.599
 \H,0,11.548,54.125,30.332\C,0,9.774,54.539,31.453\H,0,9.135,55.41,31.6
 11\H,0,9.196,53.809,30.885\C,0,10.069,53.932,32.812\N,0,11.03,53.044,3
 3.009\C,0,10.957,52.791,34.309\H,0,11.618,52.128,34.841\N,0,9.992,53.4
 98,34.861\H,0,9.735,53.451,35.837\C,0,9.4,54.235,33.961\H,0,8.59,54.92
 8,34.092\C,0,10.427,55.616,29.361\O,0,10.175,56.815,29.376\N,0,10.395,
 54.855,28.286\H,0,10.682,53.887,28.336\C,0,9.709,55.293,27.119\H,0,9.0
 9,56.169,27.313\H,0,10.42,55.527,26.326\H,0,9.054,54.461,26.863\H,0,8.
 184,48.011,25.064\C,0,8.982,47.876,25.794\H,0,8.554,47.516,26.73\H,0,9
 .74,47.182,25.431\C,0,9.623,49.225,26.035\O,0,9.371,50.18,25.3\N,0,10.
 39,49.312,27.11\H,0,10.514,48.491,27.685\C,0,11.181,50.492,27.455\H,0,
 10.771,51.387,26.99\C,0,11.25,50.675,28.972\H,0,10.243,50.829,29.361\H
 ,0,11.663,49.774,29.426\S,0,12.284,52.091,29.459\C,0,12.599,50.196,26.
 926\O,0,13.097,49.088,27.205\N,0,13.311,51.089,26.218\H,0,12.925,51.99
 5,25.99\C,0,14.638,50.755,25.757\H,0,14.746,49.675,25.659\H,0,14.842,5
 1.177,24.773\C,0,15.711,51.217,26.705\O,0,16.912,51.048,26.403\N,0,15.
 333,51.817,27.84\H,0,14.355,51.943,28.057\C,0,16.351,52.308,28.792\H,0
 ,16.96,53.042,28.265\H,0,15.903,52.793,29.659\C,0,17.194,51.119,29.253
 \O,0,16.591,50.077,29.535\N,0,18.528,51.211,29.352\H,0,19.055,52.071,2
 9.295\H,0,20.363,50.579,29.816\C,0,19.402,50.097,29.634\H,0,19.483,49.
 495,28.729\C,0,18.939,49.214,30.788\O,0,18.71,49.709,31.887\N,0,18.672
 ,47.936,30.529\H,0,18.795,47.579,29.594\C,0,18.31,47.008,31.581\H,0,18
 .669,46.019,31.297\H,0,18.815,47.288,32.507\C,0,16.81,46.909,31.86\O,0
 ,16.373,45.904,32.443\N,0,16.004,47.888,31.424\H,0,16.384,48.697,30.95
 3\C,0,14.588,47.835,31.689\H,0,14.438,47.505,32.719\C,0,13.969,49.21,3
 1.572\H,0,14.192,49.631,30.591\H,0,12.888,49.109,31.643\C,0,14.415,50.
 192,32.646\N,0,13.768,51.325,32.852\C,0,14.368,51.858,33.896\H,0,14.09
 9,52.802,34.345\N,0,15.343,51.072,34.292\H,0,15.95,51.272,35.073\C,0,1
 5.429,50.002,33.543\H,0,16.103,49.167,33.654\C,0,13.795,46.894,30.794\
 O,0,12.861,46.269,31.322\N,0,14.09,46.683,29.504\H,0,14.856,47.183,29.
 075\C,0,13.233,45.853,28.653\H,0,12.255,46.332,28.615\H,0,13.621,45.83
 ,27.635\H,0,13.084,44.827,28.991\Zn,0,12.377,52.315,31.721\\Version=AM
 64L-G03RevE.01\State=1-A\HF=-4905.6902167\RMSD=5.511e-05\Thermal=0.\Di
 pole=0.5994721,5.0256294,4.4708149\PG=C01 [X(C31H47N14O10S1Zn1)]\\@


 WE SHOULD BE CAREFUL TO GET OUT OF AN EXPERIENCE ONLY THE WISDOM
 THAT IS IN IT -- AND STOP THERE;
 LEST WE BE LIKE THE CAT THAT SITS DOWN ON A HOT STOVE-LID.
 SHE WILL NEVER SIT DOWN ON A HOT STOVE LID AGAIN;
 BUT ALSO SHE WILL NEVER SIT DOWN ON A COLD ONE ANY MORE.

                                                     -- MARK TWAIN

 File lengths (MBytes):  RWF=    520 Int=      0 D2E=      0 Chk=     50 Scr=      1
 Normal termination of Gaussian 03 at Mon Nov  2 22:12:56 2015.
