CLR                                                                     
Freq      RB3LYP                                                      6-31G(d)            
Number of atoms                            I               46
Charge                                     I                1
Multiplicity                               I                1
Number of electrons                        I              196
Number of alpha electrons                  I               98
Number of beta electrons                   I               98
Number of basis functions                  I              403
Number of independant functions            I              403
Number of point charges in /Mol/           I                0
Number of translation vectors              I                0
Info1-9                                    I   N=           9
           8           7           0           0           0         101
           6          18        -502
Num ILSW                                   I              100
ILSW                                       I   N=         100
           0           1           0           0           2           0
           0           0           0           0         402      200000
           5           0          -1           0           0           0
           0      800000           1           0           1           0
           1           0           0           0     1000000           0
           0           0      100000           0          -1           0
           0           0           0           0           0           0
           0           0           0           1           0           0
           0           0           1      720000      810000           0
           0           0           0           0           0           0
           0           0           0           0           0           0
           0           0           0           0           0           0
           0           0           0           0           0           0
           0           0           0           0           0           0
           0           0           0           0           0           0
           0           0           0           0           0           0
           0           0           0           0
Number of contracted shells                I              141
Highest angular momentum                   I                3
Largest degree of contraction              I                6
Number of primitive shells                 I              360
Pure/Cartesian d shells                    I                1
Pure/Cartesian f shells                    I                0
Virial Ratio                               R      2.004235445875200E+00
SCF Energy                                 R     -3.074199854717159E+03
Total Energy                               R     -3.074199854717159E+03
RMS Force                                  R      1.757302514649458E-06
RMS Density                                R      3.787679402419546E-09
Atomic numbers                             I   N=          46
           1           6           1           1           6           8
           7           1           6           1           6           1
           1           6           7           6           1           7
           1           6           1           1           1           6
           1           6           1           1          16           1
           1           6           1           6           1           1
           6           7           6           1           7           1
           6           1           1          30
Nuclear charges                            R   N=          46
  1.00000000E+00  6.00000000E+00  1.00000000E+00  1.00000000E+00  6.00000000E+00
  8.00000000E+00  7.00000000E+00  1.00000000E+00  6.00000000E+00  1.00000000E+00
  6.00000000E+00  1.00000000E+00  1.00000000E+00  6.00000000E+00  7.00000000E+00
  6.00000000E+00  1.00000000E+00  7.00000000E+00  1.00000000E+00  6.00000000E+00
  1.00000000E+00  1.00000000E+00  1.00000000E+00  6.00000000E+00  1.00000000E+00
  6.00000000E+00  1.00000000E+00  1.00000000E+00  1.60000000E+01  1.00000000E+00
  1.00000000E+00  6.00000000E+00  1.00000000E+00  6.00000000E+00  1.00000000E+00
  1.00000000E+00  6.00000000E+00  7.00000000E+00  6.00000000E+00  1.00000000E+00
  7.00000000E+00  1.00000000E+00  6.00000000E+00  1.00000000E+00  1.00000000E+00
  3.00000000E+01
Current cartesian coordinates              R   N=         138
  4.20226721E+00 -7.29781816E+00 -1.64982545E+00  5.06581342E+00 -6.00959405E+00
 -3.01758898E+00  7.10804402E+00 -6.31577895E+00 -3.03173902E+00  4.30829954E+00
 -6.48112992E+00 -4.88398047E+00  4.32151213E+00 -3.32811411E+00 -2.38378734E+00
  2.02563403E+00 -2.76054618E+00 -2.27190661E+00  6.19517280E+00 -1.66782701E+00
 -1.98595776E+00  7.98288630E+00 -2.33018167E+00 -2.12698095E+00  5.86591351E+00
  1.05160614E+00 -1.60209421E+00  4.06406763E+00  1.61828042E+00 -2.43745797E+00
  6.05240324E+00  1.93526011E+00  1.16397526E+00  7.98911433E+00  1.68116772E+00
  1.85426616E+00  5.72022496E+00  3.98472077E+00  1.13655995E+00  4.30043439E+00
  7.16180292E-01  3.04056435E+00  1.78087596E+00  1.23392584E-01  2.58318372E+00
  8.43242030E-01 -7.79734974E-01  4.72536816E+00 -1.06582298E+00 -1.44620724E+00
  5.00134903E+00  2.63107329E+00 -7.96369278E-01  6.54053315E+00  2.39016486E+00
 -1.38324329E+00  8.34349676E+00  4.83610680E+00  1.33484152E-01  5.50884259E+00
  6.54922138E+00  3.21628187E-01  6.59899510E+00  7.33736162E+00  2.01300942E+00
 -2.69067974E+00 -4.29918281E-01  1.02987060E+01 -5.98080941E-01 -5.18319331E-01
  8.76912271E+00 -1.99470068E+00  1.07329967E+00  8.98692868E+00 -3.29823449E+00
 -4.39528025E-01  6.20084797E+00 -6.80761110E-01  1.30405726E+00  6.02095505E+00
  4.22794650E-01 -2.02553418E+00  6.03484992E+00  6.39468964E-01 -6.25253855E-01
  3.62045451E+00 -3.06008205E+00 -2.26343678E+00  8.98869830E+00 -3.08318972E+00
 -1.02428649E+01  1.35271034E+00  8.94871427E-02 -9.09319767E+00  1.65673548E+00
  1.78363097E+00 -9.79045130E+00  4.00589279E-01  3.27542717E+00 -6.28528353E+00
  1.21167238E+00  1.23645515E+00 -5.62192745E+00  2.53755008E+00 -2.15693282E-01
 -5.17260272E+00  1.63117439E+00  2.94217579E+00 -5.69408482E+00 -1.41963583E+00
  3.62489685E-01 -3.25476111E+00 -2.15765013E+00 -2.99888961E-01 -3.38143021E+00
 -4.54974405E+00 -1.04838935E+00 -1.80953440E+00 -5.65099688E+00 -1.73646599E+00
 -5.77710803E+00 -5.39183121E+00 -8.83958863E-01 -6.38226976E+00 -7.13624610E+00
 -1.37489650E+00 -7.27202215E+00 -3.44148770E+00  4.67583195E-03 -9.27891043E+00
 -3.65871987E+00  2.80051609E-01 -9.40050277E+00  3.60317116E+00  2.40592005E+00
 -1.79412418E-01  9.11894606E-02 -7.66522102E-01
Int Atom Types                             I   N=          46
           0           0           0           0           0           0
           0           0           0           0           0           0
           0           0           0           0           0           0
           0           0           0           0           0           0
           0           0           0           0           0           0
           0           0           0           0           0           0
           0           0           0           0           0           0
           0           0           0           0
Force Field                                I                0
MM charges                                 R   N=          46
  0.00000000E+00  0.00000000E+00  0.00000000E+00  0.00000000E+00  0.00000000E+00
  0.00000000E+00  0.00000000E+00  0.00000000E+00  0.00000000E+00  0.00000000E+00
  0.00000000E+00  0.00000000E+00  0.00000000E+00  0.00000000E+00  0.00000000E+00
  0.00000000E+00  0.00000000E+00  0.00000000E+00  0.00000000E+00  0.00000000E+00
  0.00000000E+00  0.00000000E+00  0.00000000E+00  0.00000000E+00  0.00000000E+00
  0.00000000E+00  0.00000000E+00  0.00000000E+00  0.00000000E+00  0.00000000E+00
  0.00000000E+00  0.00000000E+00  0.00000000E+00  0.00000000E+00  0.00000000E+00
  0.00000000E+00  0.00000000E+00  0.00000000E+00  0.00000000E+00  0.00000000E+00
  0.00000000E+00  0.00000000E+00  0.00000000E+00  0.00000000E+00  0.00000000E+00
  0.00000000E+00
Integer atomic weights                     I   N=          46
           1          12           1           1          12          16
          14           1          12           1          12           1
           1          12          14          12           1          14
           1          12           1           1           1          12
           1          12           1           1          32           1
           1          12           1          12           1           1
          12          14          12           1          14           1
          12           1           1          64
Real atomic weights                        R   N=          46
  1.00782504E+00  1.20000000E+01  1.00782504E+00  1.00782504E+00  1.20000000E+01
  1.59949146E+01  1.40030740E+01  1.00782504E+00  1.20000000E+01  1.00782504E+00
  1.20000000E+01  1.00782504E+00  1.00782504E+00  1.20000000E+01  1.40030740E+01
  1.20000000E+01  1.00782504E+00  1.40030740E+01  1.00782504E+00  1.20000000E+01
  1.00782504E+00  1.00782504E+00  1.00782504E+00  1.20000000E+01  1.00782504E+00
  1.20000000E+01  1.00782504E+00  1.00782504E+00  3.19720718E+01  1.00782504E+00
  1.00782504E+00  1.20000000E+01  1.00782504E+00  1.20000000E+01  1.00782504E+00
  1.00782504E+00  1.20000000E+01  1.40030740E+01  1.20000000E+01  1.00782504E+00
  1.40030740E+01  1.00782504E+00  1.20000000E+01  1.00782504E+00  1.00782504E+00
  6.39291454E+01
Atom residue info                          I   N=          46
           0           0           0           0           0           0
           0           0           0           0           0           0
           0           0           0           0           0           0
           0           0           0           0           0           0
           0           0           0           0           0           0
           0           0           0           0           0           0
           0           0           0           0           0           0
           0           0           0           0
Atom fragment info                         I   N=          46
           0           0           0           0           0           0
           0           0           0           0           0           0
           0           0           0           0           0           0
           0           0           0           0           0           0
           0           0           0           0           0           0
           0           0           0           0           0           0
           0           0           0           0           0           0
           0           0           0           0
Atom residue num                           I   N=          46
           0           0           0           0           0           0
           0           0           0           0           0           0
           0           0           0           0           0           0
           0           0           0           0           0           0
           0           0           0           0           0           0
           0           0           0           0           0           0
           0           0           0           0           0           0
           0           0           0           0
Nuclear spins                              I   N=          46
           1           0           1           1           0           0
           2           1           0           1           0           1
           1           0           2           0           1           2
           1           0           1           1           1           0
           1           0           1           1           0           1
           1           0           1           0           1           1
           0           2           0           1           2           1
           0           1           1           0
Nuclear ZEff                               R   N=          46
 -1.00000000E+00 -3.60000000E+00 -1.00000000E+00 -1.00000000E+00 -3.60000000E+00
 -5.60000000E+00 -4.55000000E+00 -1.00000000E+00 -3.60000000E+00 -1.00000000E+00
 -3.60000000E+00 -1.00000000E+00 -1.00000000E+00 -3.60000000E+00 -4.55000000E+00
 -3.60000000E+00 -1.00000000E+00 -4.55000000E+00 -1.00000000E+00 -3.60000000E+00
 -1.00000000E+00 -1.00000000E+00 -1.00000000E+00 -3.60000000E+00 -1.00000000E+00
 -3.60000000E+00 -1.00000000E+00 -1.00000000E+00 -1.36000000E+01 -1.00000000E+00
 -1.00000000E+00 -3.60000000E+00 -1.00000000E+00 -3.60000000E+00 -1.00000000E+00
 -1.00000000E+00 -3.60000000E+00 -4.55000000E+00 -3.60000000E+00 -1.00000000E+00
 -4.55000000E+00 -1.00000000E+00 -3.60000000E+00 -1.00000000E+00 -1.00000000E+00
 -2.55000000E+01
Nuclear QMom                               R   N=          46
  0.00000000E+00  0.00000000E+00  0.00000000E+00  0.00000000E+00  0.00000000E+00
  0.00000000E+00  2.04400000E+00  0.00000000E+00  0.00000000E+00  0.00000000E+00
  0.00000000E+00  0.00000000E+00  0.00000000E+00  0.00000000E+00  2.04400000E+00
  0.00000000E+00  0.00000000E+00  2.04400000E+00  0.00000000E+00  0.00000000E+00
  0.00000000E+00  0.00000000E+00  0.00000000E+00  0.00000000E+00  0.00000000E+00
  0.00000000E+00  0.00000000E+00  0.00000000E+00  0.00000000E+00  0.00000000E+00
  0.00000000E+00  0.00000000E+00  0.00000000E+00  0.00000000E+00  0.00000000E+00
  0.00000000E+00  0.00000000E+00  2.04400000E+00  0.00000000E+00  0.00000000E+00
  2.04400000E+00  0.00000000E+00  0.00000000E+00  0.00000000E+00  0.00000000E+00
  0.00000000E+00
Nuclear GFac                               R   N=          46
  2.79284600E+00  0.00000000E+00  2.79284600E+00  2.79284600E+00  0.00000000E+00
  0.00000000E+00  4.03761000E-01  2.79284600E+00  0.00000000E+00  2.79284600E+00
  0.00000000E+00  2.79284600E+00  2.79284600E+00  0.00000000E+00  4.03761000E-01
  0.00000000E+00  2.79284600E+00  4.03761000E-01  2.79284600E+00  0.00000000E+00
  2.79284600E+00  2.79284600E+00  2.79284600E+00  0.00000000E+00  2.79284600E+00
  0.00000000E+00  2.79284600E+00  2.79284600E+00  0.00000000E+00  2.79284600E+00
  2.79284600E+00  0.00000000E+00  2.79284600E+00  0.00000000E+00  2.79284600E+00
  2.79284600E+00  0.00000000E+00  4.03761000E-01  0.00000000E+00  2.79284600E+00
  4.03761000E-01  2.79284600E+00  0.00000000E+00  2.79284600E+00  2.79284600E+00
  0.00000000E+00
MicOpt                                     I   N=          46
          -1          -1          -1          -1          -1          -1
          -1          -1          -1          -1          -1          -1
          -1          -1          -1          -1          -1          -1
          -1          -1          -1          -1          -1          -1
          -1          -1          -1          -1          -1          -1
          -1          -1          -1          -1          -1          -1
          -1          -1          -1          -1          -1          -1
          -1          -1          -1          -1
Constraint Structure                       R   N=         138
  4.20226721E+00 -7.29781816E+00 -1.64982545E+00  5.06581342E+00 -6.00959405E+00
 -3.01758898E+00  7.10804402E+00 -6.31577895E+00 -3.03173902E+00  4.30829954E+00
 -6.48112992E+00 -4.88398047E+00  4.32151213E+00 -3.32811411E+00 -2.38378734E+00
  2.02563403E+00 -2.76054618E+00 -2.27190661E+00  6.19517280E+00 -1.66782701E+00
 -1.98595776E+00  7.98288630E+00 -2.33018167E+00 -2.12698095E+00  5.86591351E+00
  1.05160614E+00 -1.60209421E+00  4.06406763E+00  1.61828042E+00 -2.43745797E+00
  6.05240324E+00  1.93526011E+00  1.16397526E+00  7.98911433E+00  1.68116772E+00
  1.85426616E+00  5.72022496E+00  3.98472077E+00  1.13655995E+00  4.30043439E+00
  7.16180292E-01  3.04056435E+00  1.78087596E+00  1.23392584E-01  2.58318372E+00
  8.43242030E-01 -7.79734974E-01  4.72536816E+00 -1.06582298E+00 -1.44620724E+00
  5.00134903E+00  2.63107329E+00 -7.96369278E-01  6.54053315E+00  2.39016486E+00
 -1.38324329E+00  8.34349676E+00  4.83610680E+00  1.33484152E-01  5.50884259E+00
  6.54922138E+00  3.21628187E-01  6.59899510E+00  7.33736162E+00  2.01300942E+00
 -2.69067974E+00 -4.29918281E-01  1.02987060E+01 -5.98080941E-01 -5.18319331E-01
  8.76912271E+00 -1.99470068E+00  1.07329967E+00  8.98692868E+00 -3.29823449E+00
 -4.39528025E-01  6.20084797E+00 -6.80761110E-01  1.30405726E+00  6.02095505E+00
  4.22794650E-01 -2.02553418E+00  6.03484992E+00  6.39468964E-01 -6.25253855E-01
  3.62045451E+00 -3.06008205E+00 -2.26343678E+00  8.98869830E+00 -3.08318972E+00
 -1.02428649E+01  1.35271034E+00  8.94871427E-02 -9.09319767E+00  1.65673548E+00
  1.78363097E+00 -9.79045130E+00  4.00589279E-01  3.27542717E+00 -6.28528353E+00
  1.21167238E+00  1.23645515E+00 -5.62192745E+00  2.53755008E+00 -2.15693282E-01
 -5.17260272E+00  1.63117439E+00  2.94217579E+00 -5.69408482E+00 -1.41963583E+00
  3.62489685E-01 -3.25476111E+00 -2.15765013E+00 -2.99888961E-01 -3.38143021E+00
 -4.54974405E+00 -1.04838935E+00 -1.80953440E+00 -5.65099688E+00 -1.73646599E+00
 -5.77710803E+00 -5.39183121E+00 -8.83958863E-01 -6.38226976E+00 -7.13624610E+00
 -1.37489650E+00 -7.27202215E+00 -3.44148770E+00  4.67583195E-03 -9.27891043E+00
 -3.65871987E+00  2.80051609E-01 -9.40050277E+00  3.60317116E+00  2.40592005E+00
 -1.79412418E-01  9.11894606E-02 -7.66522102E-01
ONIOM Charges                              I   N=          16
           1           0           0           0           0           0
           0           0           0           0           0           0
           0           0           0           0
ONIOM Multiplicities                       I   N=          16
           1           0           0           0           0           0
           0           0           0           0           0           0
           0           0           0           0
Atom Layers                                I   N=          46
           0           0           0           0           0           0
           0           0           0           0           0           0
           0           0           0           0           0           0
           0           0           0           0           0           0
           0           0           0           0           0           0
           0           0           0           0           0           0
           0           0           0           0           0           0
           0           0           0           0
Atom Modifiers                             I   N=          46
           0           0           0           0           0           0
           0           0           0           0           0           0
           0           0           0           0           0           0
           0           0           0           0           0           0
           0           0           0           0           0           0
           0           0           0           0           0           0
           0           0           0           0           0           0
           0           0           0           0
Int Atom Modified Types                    I   N=          46
           0           0           0           0           0           0
           0           0           0           0           0           0
           0           0           0           0           0           0
           0           0           0           0           0           0
           0           0           0           0           0           0
           0           0           0           0           0           0
           0           0           0           0           0           0
           0           0           0           0
Link Atoms                                 I   N=          46
           0           0           0           0           0           0
           0           0           0           0           0           0
           0           0           0           0           0           0
           0           0           0           0           0           0
           0           0           0           0           0           0
           0           0           0           0           0           0
           0           0           0           0           0           0
           0           0           0           0
Atom Modified MM Charges                   R   N=          46
  0.00000000E+00  0.00000000E+00  0.00000000E+00  0.00000000E+00  0.00000000E+00
  0.00000000E+00  0.00000000E+00  0.00000000E+00  0.00000000E+00  0.00000000E+00
  0.00000000E+00  0.00000000E+00  0.00000000E+00  0.00000000E+00  0.00000000E+00
  0.00000000E+00  0.00000000E+00  0.00000000E+00  0.00000000E+00  0.00000000E+00
  0.00000000E+00  0.00000000E+00  0.00000000E+00  0.00000000E+00  0.00000000E+00
  0.00000000E+00  0.00000000E+00  0.00000000E+00  0.00000000E+00  0.00000000E+00
  0.00000000E+00  0.00000000E+00  0.00000000E+00  0.00000000E+00  0.00000000E+00
  0.00000000E+00  0.00000000E+00  0.00000000E+00  0.00000000E+00  0.00000000E+00
  0.00000000E+00  0.00000000E+00  0.00000000E+00  0.00000000E+00  0.00000000E+00
  0.00000000E+00
Link Distances                             R   N=         184
  0.00000000E+00  0.00000000E+00  0.00000000E+00  0.00000000E+00  0.00000000E+00
  0.00000000E+00  0.00000000E+00  0.00000000E+00  0.00000000E+00  0.00000000E+00
  0.00000000E+00  0.00000000E+00  0.00000000E+00  0.00000000E+00  0.00000000E+00
  0.00000000E+00  0.00000000E+00  0.00000000E+00  0.00000000E+00  0.00000000E+00
  0.00000000E+00  0.00000000E+00  0.00000000E+00  0.00000000E+00  0.00000000E+00
  0.00000000E+00  0.00000000E+00  0.00000000E+00  0.00000000E+00  0.00000000E+00
  0.00000000E+00  0.00000000E+00  0.00000000E+00  0.00000000E+00  0.00000000E+00
  0.00000000E+00  0.00000000E+00  0.00000000E+00  0.00000000E+00  0.00000000E+00
  0.00000000E+00  0.00000000E+00  0.00000000E+00  0.00000000E+00  0.00000000E+00
  0.00000000E+00  0.00000000E+00  0.00000000E+00  0.00000000E+00  0.00000000E+00
  0.00000000E+00  0.00000000E+00  0.00000000E+00  0.00000000E+00  0.00000000E+00
  0.00000000E+00  0.00000000E+00  0.00000000E+00  0.00000000E+00  0.00000000E+00
  0.00000000E+00  0.00000000E+00  0.00000000E+00  0.00000000E+00  0.00000000E+00
  0.00000000E+00  0.00000000E+00  0.00000000E+00  0.00000000E+00  0.00000000E+00
  0.00000000E+00  0.00000000E+00  0.00000000E+00  0.00000000E+00  0.00000000E+00
  0.00000000E+00  0.00000000E+00  0.00000000E+00  0.00000000E+00  0.00000000E+00
  0.00000000E+00  0.00000000E+00  0.00000000E+00  0.00000000E+00  0.00000000E+00
  0.00000000E+00  0.00000000E+00  0.00000000E+00  0.00000000E+00  0.00000000E+00
  0.00000000E+00  0.00000000E+00  0.00000000E+00  0.00000000E+00  0.00000000E+00
  0.00000000E+00  0.00000000E+00  0.00000000E+00  0.00000000E+00  0.00000000E+00
  0.00000000E+00  0.00000000E+00  0.00000000E+00  0.00000000E+00  0.00000000E+00
  0.00000000E+00  0.00000000E+00  0.00000000E+00  0.00000000E+00  0.00000000E+00
  0.00000000E+00  0.00000000E+00  0.00000000E+00  0.00000000E+00  0.00000000E+00
  0.00000000E+00  0.00000000E+00  0.00000000E+00  0.00000000E+00  0.00000000E+00
  0.00000000E+00  0.00000000E+00  0.00000000E+00  0.00000000E+00  0.00000000E+00
  0.00000000E+00  0.00000000E+00  0.00000000E+00  0.00000000E+00  0.00000000E+00
  0.00000000E+00  0.00000000E+00  0.00000000E+00  0.00000000E+00  0.00000000E+00
  0.00000000E+00  0.00000000E+00  0.00000000E+00  0.00000000E+00  0.00000000E+00
  0.00000000E+00  0.00000000E+00  0.00000000E+00  0.00000000E+00  0.00000000E+00
  0.00000000E+00  0.00000000E+00  0.00000000E+00  0.00000000E+00  0.00000000E+00
  0.00000000E+00  0.00000000E+00  0.00000000E+00  0.00000000E+00  0.00000000E+00
  0.00000000E+00  0.00000000E+00  0.00000000E+00  0.00000000E+00  0.00000000E+00
  0.00000000E+00  0.00000000E+00  0.00000000E+00  0.00000000E+00  0.00000000E+00
  0.00000000E+00  0.00000000E+00  0.00000000E+00  0.00000000E+00  0.00000000E+00
  0.00000000E+00  0.00000000E+00  0.00000000E+00  0.00000000E+00  0.00000000E+00
  0.00000000E+00  0.00000000E+00  0.00000000E+00  0.00000000E+00  0.00000000E+00
  0.00000000E+00  0.00000000E+00  0.00000000E+00  0.00000000E+00
MxBond                                     I                4
NBond                                      I   N=          46
           1           4           1           1           3           1
           3           1           4           1           4           1
           1           3           3           3           1           3
           1           3           1           1           1           4
           1           4           1           1           2           1
           1           4           1           4           1           1
           3           3           3           1           3           1
           3           1           1           3
IBond                                      I   N=         184
           2           0           0           0           1           3
           4           5           2           0           0           0
           2           0           0           0           2           6
           7           0           5           0           0           0
           5           8           9           0           7           0
           0           0           7          10          11          22
           9           0           0           0           9          12
          13          14          11           0           0           0
          11           0           0           0          11          15
          20           0          14          16          46           0
          15          17          18           0          16           0
           0           0          16          19          20           0
          18           0           0           0          14          18
          21           0          20           0           0           0
           9           0           0           0          24           0
           0           0          23          25          26          30
          24           0           0           0          24          27
          28          29          26           0           0           0
          26           0           0           0          26          46
           0           0          24           0           0           0
          32           0           0           0          31          33
          34          45          32           0           0           0
          32          35          36          37          34           0
           0           0          34           0           0           0
          34          38          43           0          37          39
          46           0          38          40          41           0
          39           0           0           0          39          42
          43           0          41           0           0           0
          37          41          44           0          43           0
           0           0          32           0           0           0
          15          29          38           0
RBond                                      R   N=         184
  1.00000000E+00  0.00000000E+00  0.00000000E+00  0.00000000E+00  1.00000000E+00
  1.00000000E+00  1.00000000E+00  1.00000000E+00  1.00000000E+00  0.00000000E+00
  0.00000000E+00  0.00000000E+00  1.00000000E+00  0.00000000E+00  0.00000000E+00
  0.00000000E+00  1.00000000E+00  2.00000000E+00  1.41000000E+00  0.00000000E+00
  2.00000000E+00  0.00000000E+00  0.00000000E+00  0.00000000E+00  1.41000000E+00
  1.00000000E+00  1.00000000E+00  0.00000000E+00  1.00000000E+00  0.00000000E+00
  0.00000000E+00  0.00000000E+00  1.00000000E+00  1.00000000E+00  1.00000000E+00
  1.00000000E+00  1.00000000E+00  0.00000000E+00  0.00000000E+00  0.00000000E+00
  1.00000000E+00  1.00000000E+00  1.00000000E+00  1.00000000E+00  1.00000000E+00
  0.00000000E+00  0.00000000E+00  0.00000000E+00  1.00000000E+00  0.00000000E+00
  0.00000000E+00  0.00000000E+00  1.00000000E+00  1.50000000E+00  2.00000000E+00
  0.00000000E+00  1.50000000E+00  1.50000000E+00  1.00000000E+00  0.00000000E+00
  1.50000000E+00  1.00000000E+00  1.50000000E+00  0.00000000E+00  1.00000000E+00
  0.00000000E+00  0.00000000E+00  0.00000000E+00  1.50000000E+00  1.00000000E+00
  2.00000000E+00  0.00000000E+00  1.00000000E+00  0.00000000E+00  0.00000000E+00
  0.00000000E+00  2.00000000E+00  2.00000000E+00  1.00000000E+00  0.00000000E+00
  1.00000000E+00  0.00000000E+00  0.00000000E+00  0.00000000E+00  1.00000000E+00
  0.00000000E+00  0.00000000E+00  0.00000000E+00  1.00000000E+00  0.00000000E+00
  0.00000000E+00  0.00000000E+00  1.00000000E+00  1.00000000E+00  1.00000000E+00
  1.00000000E+00  1.00000000E+00  0.00000000E+00  0.00000000E+00  0.00000000E+00
  1.00000000E+00  1.00000000E+00  1.00000000E+00  1.00000000E+00  1.00000000E+00
  0.00000000E+00  0.00000000E+00  0.00000000E+00  1.00000000E+00  0.00000000E+00
  0.00000000E+00  0.00000000E+00  1.00000000E+00  1.00000000E+00  0.00000000E+00
  0.00000000E+00  1.00000000E+00  0.00000000E+00  0.00000000E+00  0.00000000E+00
  1.00000000E+00  0.00000000E+00  0.00000000E+00  0.00000000E+00  1.00000000E+00
  1.00000000E+00  1.00000000E+00  1.00000000E+00  1.00000000E+00  0.00000000E+00
  0.00000000E+00  0.00000000E+00  1.00000000E+00  1.00000000E+00  1.00000000E+00
  1.00000000E+00  1.00000000E+00  0.00000000E+00  0.00000000E+00  0.00000000E+00
  1.00000000E+00  0.00000000E+00  0.00000000E+00  0.00000000E+00  1.00000000E+00
  1.50000000E+00  2.00000000E+00  0.00000000E+00  1.50000000E+00  1.50000000E+00
  1.00000000E+00  0.00000000E+00  1.50000000E+00  1.00000000E+00  1.50000000E+00