 Entering Gaussian System, Link 0=g03
 Initial command:
 /apps/gaussian/g03/amd64/g03/l1.exe /scratch/lfs/pengfei/pymsmt/testcases2/Os2/mk/Gau-56024.inp -scrdir=/scratch/lfs/pengfei/pymsmt/testcases2/Os2/mk/
 Entering Link 1 = /apps/gaussian/g03/amd64/g03/l1.exe PID=     56025.
  
 Copyright (c) 1988,1990,1992,1993,1995,1998,2003,2004,2007, Gaussian, Inc.
                  All Rights Reserved.
  
 This is the Gaussian(R) 03 program.  It is based on the
 the Gaussian(R) 98 system (copyright 1998, Gaussian, Inc.),
 the Gaussian(R) 94 system (copyright 1995, Gaussian, Inc.),
 the Gaussian 92(TM) system (copyright 1992, Gaussian, Inc.),
 the Gaussian 90(TM) system (copyright 1990, Gaussian, Inc.),
 the Gaussian 88(TM) system (copyright 1988, Gaussian, Inc.),
 the Gaussian 86(TM) system (copyright 1986, Carnegie Mellon
 University), and the Gaussian 82(TM) system (copyright 1983,
 Carnegie Mellon University). Gaussian is a federally registered
 trademark of Gaussian, Inc.
  
 This software contains proprietary and confidential information,
 including trade secrets, belonging to Gaussian, Inc.
  
 This software is provided under written license and may be
 used, copied, transmitted, or stored only in accord with that
 written license.
  
 The following legend is applicable only to US Government
 contracts under FAR:
  
                    RESTRICTED RIGHTS LEGEND
  
 Use, reproduction and disclosure by the US Government is
 subject to restrictions as set forth in subparagraphs (a)
 and (c) of the Commercial Computer Software - Restricted
 Rights clause in FAR 52.227-19.
  
 Gaussian, Inc.
 340 Quinnipiac St., Bldg. 40, Wallingford CT 06492
  
  
 ---------------------------------------------------------------
 Warning -- This program may not be used in any manner that
 competes with the business of Gaussian, Inc. or will provide
 assistance to any competitor of Gaussian, Inc.  The licensee
 of this program is prohibited from giving any competitor of
 Gaussian, Inc. access to this program.  By using this program,
 the user acknowledges that Gaussian, Inc. is engaged in the
 business of creating and licensing software in the field of
 computational chemistry and represents and warrants to the
 licensee that it is not a competitor of Gaussian, Inc. and that
 it will not use this program in any manner prohibited above.
 ---------------------------------------------------------------
  

 Cite this work as:
 Gaussian 03, Revision E.01,
 M. J. Frisch, G. W. Trucks, H. B. Schlegel, G. E. Scuseria, 
 M. A. Robb, J. R. Cheeseman, J. A. Montgomery, Jr., T. Vreven, 
 K. N. Kudin, J. C. Burant, J. M. Millam, S. S. Iyengar, J. Tomasi, 
 V. Barone, B. Mennucci, M. Cossi, G. Scalmani, N. Rega, 
 G. A. Petersson, H. Nakatsuji, M. Hada, M. Ehara, K. Toyota, 
 R. Fukuda, J. Hasegawa, M. Ishida, T. Nakajima, Y. Honda, O. Kitao, 
 H. Nakai, M. Klene, X. Li, J. E. Knox, H. P. Hratchian, J. B. Cross, 
 V. Bakken, C. Adamo, J. Jaramillo, R. Gomperts, R. E. Stratmann, 
 O. Yazyev, A. J. Austin, R. Cammi, C. Pomelli, J. W. Ochterski, 
 P. Y. Ayala, K. Morokuma, G. A. Voth, P. Salvador, J. J. Dannenberg, 
 V. G. Zakrzewski, S. Dapprich, A. D. Daniels, M. C. Strain, 
 O. Farkas, D. K. Malick, A. D. Rabuck, K. Raghavachari, 
 J. B. Foresman, J. V. Ortiz, Q. Cui, A. G. Baboul, S. Clifford, 
 J. Cioslowski, B. B. Stefanov, G. Liu, A. Liashenko, P. Piskorz, 
 I. Komaromi, R. L. Martin, D. J. Fox, T. Keith, M. A. Al-Laham, 
 C. Y. Peng, A. Nanayakkara, M. Challacombe, P. M. W. Gill, 
 B. Johnson, W. Chen, M. W. Wong, C. Gonzalez, and J. A. Pople, 
 Gaussian, Inc., Wallingford CT, 2004.
 
 ******************************************
 Gaussian 03:  AM64L-G03RevE.01 11-Sep-2007
                 2-Nov-2015 
 ******************************************
 %Chk=FAJYAR01_large_mk.chk
 %Mem=6000MB
 %NProcShared=12
 Will use up to   12 processors via shared memory.
 ----------------------------------------------------------------------
 #N B3LYP/SDD Integral=(Grid=UltraFine) Pop(MK,ReadRadii) SCF=XQC IOp(6
 /33=2)
 ----------------------------------------------------------------------
 1/38=1/1;
 2/17=6,18=5,40=1/2;
 3/5=17,6=7,11=2,16=1,25=1,30=1,74=-5,75=5/1,2,3;
 4//1;
 5/5=2,8=3,13=1,32=1,38=5/2,8;
 6/7=2,8=2,9=2,10=2,15=8,20=101,28=1,33=2/1,2;
 99/5=1,9=1/99;
 ---
 CLR
 ---
 Symbolic Z-matrix:
 Charge =  2 Multiplicity = 1
 Os                    25.839    11.38     7.526 
 N                     26.789    12.578    6.146 
 C                     28.       13.155    6.239 
 C                     28.539    13.923    5.169 
 C                     27.806    14.052    4.003 
 C                     26.522    13.509    3.911 
 C                     26.037    12.777    5. 
 C                     25.668    13.652    2.746 
 C                     24.479    13.104    2.727 
 C                     23.959    12.36     3.827 
 C                     24.737    12.186    4.951 
 C                     22.68     11.687    3.855 
 C                     22.345    10.964    4.966 
 C                     23.188    10.858    6.04 
 N                     24.416    11.469    6.047 
 N                     27.238    11.428    9.046 
 C                     28.21     10.615    9.317 
 C                     28.972    10.588    10.484 
 C                     28.673    11.542    11.455 
 C                     27.64     12.46     11.246 
 C                     26.896    12.381    10.042 
 C                     27.23     13.498    12.181 
 C                     26.259    14.351    11.902 
 C                     25.494    14.266    10.66 
 C                     25.855    13.265    9.746 
 C                     24.462    15.104    10.338 
 C                     23.813    14.958    9.119 
 C                     24.206    13.863    8.265 
 N                     25.2      13.034    8.594 
 N                     26.584    9.601     6.752 
 C                     27.526    9.437     5.822 
 C                     27.992    8.191     5.405 
 C                     27.431    7.053     5.967 
 C                     26.472    7.213     6.913 
 C                     26.052    8.493     7.342 
 C                     25.833    6.036     7.553 
 C                     24.912    6.232     8.441 
 C                     24.424    7.59      8.929 
 C                     25.07     8.699     8.314 
 C                     23.477    7.827     9.816 
 C                     23.153    9.161     10.185 
 C                     23.831    10.286    9.609 
 N                     24.762    9.992     8.656 
 H                     28.525    13.037    7.035 
 H                     29.401    14.344    5.247 
 H                     28.189    14.519    3.255 
 H                     25.988    14.121    1.98 
 H                     23.94     13.213    1.944 
 H                     22.091    11.73     3.1 
 H                     21.487    10.519    4.996 
 H                     22.919    10.36     6.809 
 H                     28.419    9.961     8.645 
 H                     29.666    9.945     10.649 
 H                     29.193    11.603    12.258 
 H                     27.722    13.579    12.998 
 H                     26.052    15.029    12.544 
 H                     24.212    15.81     10.935 
 H                     23.128    15.571    8.86 
 H                     23.745    13.707    7.441 
 H                     27.869    10.216    5.378 
 H                     28.692    8.128     4.758 
 H                     27.733    6.184     5.688 
 H                     26.089    5.148     7.286 
 H                     24.529    5.435     8.824 
 H                     22.997    7.092     10.231 
 H                     22.47     9.308     10.839 
 H                     23.659    11.188    9.861 
 
 Stoichiometry    C36H24N6Os(2+)
 Framework group  C1[X(C36H24N6Os)]
 Deg. of freedom   195
 Full point group                 C1
 Largest Abelian subgroup         C1      NOp   1
 Largest concise Abelian subgroup C1      NOp   1
                         Standard orientation:                         
 ---------------------------------------------------------------------
 Center     Atomic     Atomic              Coordinates (Angstroms)
 Number     Number      Type              X           Y           Z
 ---------------------------------------------------------------------
    1         76             0        0.031897   -0.085842   -0.042976
    2          7             0        1.369164   -1.223881   -1.119400
    3          6             0        1.154608   -1.902380   -2.260322
    4          6             0        2.204653   -2.609227   -2.910719
    5          6             0        3.474995   -2.570866   -2.364600
    6          6             0        3.703113   -1.920341   -1.149384
    7          6             0        2.629963   -1.255312   -0.546844
    8          6             0        4.992195   -1.886249   -0.482979
    9          6             0        5.133683   -1.245123    0.649861
   10          6             0        4.053761   -0.566388    1.287845
   11          6             0        2.813253   -0.559828    0.687817
   12          6             0        4.149690    0.201693    2.508665
   13          6             0        3.033191    0.843714    2.967482
   14          6             0        1.839063    0.782175    2.299924
   15          7             0        1.710007    0.076497    1.130857
   16          7             0       -1.668707   -0.386006   -1.177767
   17          6             0       -2.166115    0.317841   -2.145434
   18          6             0       -3.431256    0.175824   -2.713336
   19          6             0       -4.241880   -0.836549   -2.203094
   20          6             0       -3.785337   -1.645427   -1.158690
   21          6             0       -2.497518   -1.396239   -0.621269
   22          6             0       -4.535107   -2.728936   -0.539317
   23          6             0       -4.025843   -3.471826    0.428699
   24          6             0       -2.698117   -3.211492    0.980409
   25          6             0       -1.957760   -2.162707    0.415042
   26          6             0       -2.138921   -3.930630    2.000748
   27          6             0       -0.857642   -3.621190    2.437839
   28          6             0       -0.190838   -2.487214    1.844324
   29          7             0       -0.750245   -1.774602    0.863118
   30          7             0        0.496056    1.691355   -1.015123
   31          6             0        1.251084    1.864238   -2.101034
   32          6             0        1.461615    3.101918   -2.707157
   33          6             0        0.875983    4.224603   -2.139510
   34          6             0        0.107378    4.055580   -1.034578
   35          6             0       -0.118375    2.779354   -0.469668
   36          6             0       -0.547194    5.216043   -0.380276
   37          6             0       -1.260790    5.013587    0.680381
   38          6             0       -1.526198    3.659966    1.326694
   39          6             0       -0.904303    2.564125    0.665030
   40          6             0       -2.230638    3.418998    2.415476
   41          6             0       -2.406312    2.087001    2.879820
   42          6             0       -1.825932    0.969113    2.193837
   43          7             0       -1.060095    1.274025    1.106671
   44          1             0        0.280562   -1.900834   -2.659327
   45          1             0        2.041394   -3.103486   -3.720302
   46          1             0        4.200871   -2.996139   -2.829926
   47          1             0        5.745488   -2.306788   -0.888952
   48          1             0        5.996132   -1.237812    1.064131
   49          1             0        4.985328    0.275943    2.972337
   50          1             0        3.087187    1.351512    3.788648
   51          1             0        1.072116    1.227124    2.654237
   52          1             0       -1.604773    1.012120   -2.500192
   53          1             0       -3.764866    0.743048   -3.412814
   54          1             0       -5.103515   -1.012904   -2.584426
   55          1             0       -5.404206   -2.924183   -0.889547
   56          1             0       -4.555509   -4.187318    0.778301
   57          1             0       -2.614954   -4.666309    2.387418
   58          1             0       -0.436087   -4.150694    3.111629
   59          1             0        0.672693   -2.219374    2.158027
   60          1             0        1.716454    1.104484   -2.458569
   61          1             0        1.985436    3.167896   -3.503296
   62          1             0        1.014659    5.088557   -2.537703
   63          1             0       -0.415336    6.101442   -0.732485
   64          1             0       -1.662014    5.800043    1.066506
   65          1             0       -2.642252    4.148759    2.906265
   66          1             0       -2.930882    1.935643    3.665778
   67          1             0       -1.954280    0.064457    2.461820
 ---------------------------------------------------------------------
 Rotational constants (GHZ):      0.1008360      0.0941311      0.0716155
 Standard basis: SDD (6D, 10F)
 There are   507 symmetry adapted basis functions of A   symmetry.
 Integral buffers will be    131072 words long.
 Raffenetti 2 integral format.
 Two-electron integral symmetry is turned on.
   507 basis functions,  1169 primitive gaussians,   507 cartesian basis functions
   148 alpha electrons      148 beta electrons
       nuclear repulsion energy      5452.1728801338 Hartrees.
 NAtoms=   67 NActive=   67 NUniq=   67 SFac= 7.50D-01 NAtFMM=   80 NAOKFM=F Big=T
 One-electron integrals computed using PRISM.
   1 Symmetry operations used in ECPInt.
 ECPInt:  NShTT=   49455 NPrTT=  249830 LenC2=   41676 LenP2D=  122254.
 LDataN:  DoStor=F MaxTD1= 7 Len=  274
 LDataN:  DoStor=T MaxTD1= 7 Len=  274
 NBasis=   507 RedAO= T  NBF=   507
 NBsUse=   507 1.00D-06 NBFU=   507
 Defaulting to unpruned grid for atomic number  76.
 Harris functional with IExCor=  402 diagonalized for initial guess.
 ExpMin= 1.50D-02 ExpMax= 5.91D+03 ExpMxC= 8.87D+02 IAcc=3 IRadAn=         5 AccDes= 0.00D+00
 HarFok:  IExCor= 402 AccDes= 0.00D+00 IRadAn=         5 IDoV=1
 ScaDFX=  1.000000  1.000000  1.000000  1.000000
 Defaulting to unpruned grid for atomic number  76.
 Defaulting to unpruned grid for atomic number  76.
 Defaulting to unpruned grid for atomic number  76.
 Defaulting to unpruned grid for atomic number  76.
 Defaulting to unpruned grid for atomic number  76.
 Defaulting to unpruned grid for atomic number  76.
 Defaulting to unpruned grid for atomic number  76.
 Defaulting to unpruned grid for atomic number  76.
 Defaulting to unpruned grid for atomic number  76.
 Defaulting to unpruned grid for atomic number  76.
 Defaulting to unpruned grid for atomic number  76.
 Defaulting to unpruned grid for atomic number  76.
 Initial guess orbital symmetries:
       Occupied  (A) (A) (A) (A) (A) (A) (A) (A) (A) (A) (A) (A)
                 (A) (A) (A) (A) (A) (A) (A) (A) (A) (A) (A) (A)
                 (A) (A) (A) (A) (A) (A) (A) (A) (A) (A) (A) (A)
                 (A) (A) (A) (A) (A) (A) (A) (A) (A) (A) (A) (A)
                 (A) (A) (A) (A) (A) (A) (A) (A) (A) (A) (A) (A)
                 (A) (A) (A) (A) (A) (A) (A) (A) (A) (A) (A) (A)
                 (A) (A) (A) (A) (A) (A) (A) (A) (A) (A) (A) (A)
                 (A) (A) (A) (A) (A) (A) (A) (A) (A) (A) (A) (A)
                 (A) (A) (A) (A) (A) (A) (A) (A) (A) (A) (A) (A)
                 (A) (A) (A) (A) (A) (A) (A) (A) (A) (A) (A) (A)
                 (A) (A) (A) (A) (A) (A) (A) (A) (A) (A) (A) (A)
                 (A) (A) (A) (A) (A) (A) (A) (A) (A) (A) (A) (A)
                 (A) (A) (A) (A)
       Virtual   (A) (A) (A) (A) (A) (A) (A) (A) (A) (A) (A) (A)
                 (A) (A) (A) (A) (A) (A) (A) (A) (A) (A) (A) (A)
                 (A) (A) (A) (A) (A) (A) (A) (A) (A) (A) (A) (A)
                 (A) (A) (A) (A) (A) (A) (A) (A) (A) (A) (A) (A)
                 (A) (A) (A) (A) (A) (A) (A) (A) (A) (A) (A) (A)
                 (A) (A) (A) (A) (A) (A) (A) (A) (A) (A) (A) (A)
                 (A) (A) (A) (A) (A) (A) (A) (A) (A) (A) (A) (A)
                 (A) (A) (A) (A) (A) (A) (A) (A) (A) (A) (A) (A)
                 (A) (A) (A) (A) (A) (A) (A) (A) (A) (A) (A) (A)
                 (A) (A) (A) (A) (A) (A) (A) (A) (A) (A) (A) (A)
                 (A) (A) (A) (A) (A) (A) (A) (A) (A) (A) (A) (A)
                 (A) (A) (A) (A) (A) (A) (A) (A) (A) (A) (A) (A)
                 (A) (A) (A) (A) (A) (A) (A) (A) (A) (A) (A) (A)
                 (A) (A) (A) (A) (A) (A) (A) (A) (A) (A) (A) (A)
                 (A) (A) (A) (A) (A) (A) (A) (A) (A) (A) (A) (A)
                 (A) (A) (A) (A) (A) (A) (A) (A) (A) (A) (A) (A)
                 (A) (A) (A) (A) (A) (A) (A) (A) (A) (A) (A) (A)
                 (A) (A) (A) (A) (A) (A) (A) (A) (A) (A) (A) (A)
                 (A) (A) (A) (A) (A) (A) (A) (A) (A) (A) (A) (A)
                 (A) (A) (A) (A) (A) (A) (A) (A) (A) (A) (A) (A)
                 (A) (A) (A) (A) (A) (A) (A) (A) (A) (A) (A) (A)
                 (A) (A) (A) (A) (A) (A) (A) (A) (A) (A) (A) (A)
                 (A) (A) (A) (A) (A) (A) (A) (A) (A) (A) (A) (A)
                 (A) (A) (A) (A) (A) (A) (A) (A) (A) (A) (A) (A)
                 (A) (A) (A) (A) (A) (A) (A) (A) (A) (A) (A) (A)
                 (A) (A) (A) (A) (A) (A) (A) (A) (A) (A) (A) (A)
                 (A) (A) (A) (A) (A) (A) (A) (A) (A) (A) (A) (A)
                 (A) (A) (A) (A) (A) (A) (A) (A) (A) (A) (A) (A)
                 (A) (A) (A) (A) (A) (A) (A) (A) (A) (A) (A) (A)
                 (A) (A) (A) (A) (A) (A) (A) (A) (A) (A) (A)
 The electronic state of the initial guess is 1-A.
 Requested convergence on RMS density matrix=1.00D-04 within 128 cycles.
 Requested convergence on MAX density matrix=1.00D-02.
 Requested convergence on             energy=1.00D-02.
 No special actions if energy rises.
 Defaulting to unpruned grid for atomic number  76.
 Defaulting to unpruned grid for atomic number  76.
 Defaulting to unpruned grid for atomic number  76.
 Defaulting to unpruned grid for atomic number  76.
 Defaulting to unpruned grid for atomic number  76.
 Defaulting to unpruned grid for atomic number  76.
 Defaulting to unpruned grid for atomic number  76.
 Defaulting to unpruned grid for atomic number  76.
 Defaulting to unpruned grid for atomic number  76.
 Defaulting to unpruned grid for atomic number  76.
 Defaulting to unpruned grid for atomic number  76.
 Defaulting to unpruned grid for atomic number  76.
 EnCoef did   100 forward-backward iterations
 EnCoef did    11 forward-backward iterations
 EnCoef did     3 forward-backward iterations
 SCF Done:  E(RB+HF-LYP) =  -1804.63293150     A.U. after   10 cycles
             Convg  =    0.5678D-04             -V/T =  2.0356
             S**2   =   0.0000
 QCSCF skips out because SCF is already converged.

 **********************************************************************

            Population analysis using the SCF density.

 **********************************************************************

 Orbital symmetries:
 BldTbl:  Degeneracy threshold= 1.00D-02
       Occupied  (A) (A) (A) (A) (A) (A) (A) (A) (A) (A) (A) (A)
                 (A) (A) (A) (A) (A) (A) (A) (A) (A) (A) (A) (A)
                 (A) (A) (A) (A) (A) (A) (A) (A) (A) (A) (A) (A)
                 (A) (A) (A) (A) (A) (A) (A) (A) (A) (A) (A) (A)
                 (A) (A) (A) (A) (A) (A) (A) (A) (A) (A) (A) (A)
                 (A) (A) (A) (A) (A) (A) (A) (A) (A) (A) (A) (A)
                 (A) (A) (A) (A) (A) (A) (A) (A) (A) (A) (A) (A)
                 (A) (A) (A) (A) (A) (A) (A) (A) (A) (A) (A) (A)
                 (A) (A) (A) (A) (A) (A) (A) (A) (A) (A) (A) (A)
                 (A) (A) (A) (A) (A) (A) (A) (A) (A) (A) (A) (A)
                 (A) (A) (A) (A) (A) (A) (A) (A) (A) (A) (A) (A)
                 (A) (A) (A) (A) (A) (A) (A) (A) (A) (A) (A) (A)
                 (A) (A) (A) (A)
       Virtual   (A) (A) (A) (A) (A) (A) (A) (A) (A) (A) (A) (A)
                 (A) (A) (A) (A) (A) (A) (A) (A) (A) (A) (A) (A)
                 (A) (A) (A) (A) (A) (A) (A) (A) (A) (A) (A) (A)
                 (A) (A) (A) (A) (A) (A) (A) (A) (A) (A) (A) (A)
                 (A) (A) (A) (A) (A) (A) (A) (A) (A) (A) (A) (A)
                 (A) (A) (A) (A) (A) (A) (A) (A) (A) (A) (A) (A)
                 (A) (A) (A) (A) (A) (A) (A) (A) (A) (A) (A) (A)
                 (A) (A) (A) (A) (A) (A) (A) (A) (A) (A) (A) (A)
                 (A) (A) (A) (A) (A) (A) (A) (A) (A) (A) (A) (A)
                 (A) (A) (A) (A) (A) (A) (A) (A) (A) (A) (A) (A)
                 (A) (A) (A) (A) (A) (A) (A) (A) (A) (A) (A) (A)
                 (A) (A) (A) (A) (A) (A) (A) (A) (A) (A) (A) (A)
                 (A) (A) (A) (A) (A) (A) (A) (A) (A) (A) (A) (A)
                 (A) (A) (A) (A) (A) (A) (A) (A) (A) (A) (A) (A)
                 (A) (A) (A) (A) (A) (A) (A) (A) (A) (A) (A) (A)
                 (A) (A) (A) (A) (A) (A) (A) (A) (A) (A) (A) (A)
                 (A) (A) (A) (A) (A) (A) (A) (A) (A) (A) (A) (A)
                 (A) (A) (A) (A) (A) (A) (A) (A) (A) (A) (A) (A)
                 (A) (A) (A) (A) (A) (A) (A) (A) (A) (A) (A) (A)
                 (A) (A) (A) (A) (A) (A) (A) (A) (A) (A) (A) (A)
                 (A) (A) (A) (A) (A) (A) (A) (A) (A) (A) (A) (A)
                 (A) (A) (A) (A) (A) (A) (A) (A) (A) (A) (A) (A)
                 (A) (A) (A) (A) (A) (A) (A) (A) (A) (A) (A) (A)
                 (A) (A) (A) (A) (A) (A) (A) (A) (A) (A) (A) (A)
                 (A) (A) (A) (A) (A) (A) (A) (A) (A) (A) (A) (A)
                 (A) (A) (A) (A) (A) (A) (A) (A) (A) (A) (A) (A)
                 (A) (A) (A) (A) (A) (A) (A) (A) (A) (A) (A) (A)
                 (A) (A) (A) (A) (A) (A) (A) (A) (A) (A) (A) (A)
                 (A) (A) (A) (A) (A) (A) (A) (A) (A) (A) (A) (A)
                 (A) (A) (A) (A) (A) (A) (A) (A) (A) (A) (A)
 The electronic state is 1-A.
 Alpha  occ. eigenvalues --  -14.58854 -14.58732 -14.58708 -14.58671 -14.58656
 Alpha  occ. eigenvalues --  -14.58488 -10.45035 -10.44834 -10.44473 -10.44442
 Alpha  occ. eigenvalues --  -10.44384 -10.44336 -10.44047 -10.43420 -10.43349
 Alpha  occ. eigenvalues --  -10.43034 -10.42971 -10.42700 -10.42432 -10.42044
 Alpha  occ. eigenvalues --  -10.42017 -10.41961 -10.41926 -10.41770 -10.40704
 Alpha  occ. eigenvalues --  -10.40268 -10.40193 -10.40164 -10.39968 -10.39879
 Alpha  occ. eigenvalues --  -10.39843 -10.39820 -10.39798 -10.39764 -10.39727
 Alpha  occ. eigenvalues --  -10.39471 -10.38821 -10.38707 -10.38597 -10.38581
 Alpha  occ. eigenvalues --  -10.38535 -10.38378  -3.63787  -2.07270  -2.07206
 Alpha  occ. eigenvalues --   -2.06005  -1.21197  -1.20446  -1.20160  -1.18108
 Alpha  occ. eigenvalues --   -1.17478  -1.17296  -1.07597  -1.07374  -1.07070
 Alpha  occ. eigenvalues --   -1.03897  -1.03541  -1.03344  -1.03336  -1.02852
 Alpha  occ. eigenvalues --   -1.02801  -0.98439  -0.97983  -0.97773  -0.97699
 Alpha  occ. eigenvalues --   -0.97292  -0.97088  -0.89693  -0.89060  -0.88942
 Alpha  occ. eigenvalues --   -0.87727  -0.87628  -0.87541  -0.87348  -0.87068
 Alpha  occ. eigenvalues --   -0.86940  -0.83708  -0.83652  -0.83533  -0.79310
 Alpha  occ. eigenvalues --   -0.78935  -0.78746  -0.78616  -0.78039  -0.77691
 Alpha  occ. eigenvalues --   -0.74640  -0.74486  -0.74429  -0.72864  -0.72769
 Alpha  occ. eigenvalues --   -0.72561  -0.71703  -0.71380  -0.71305  -0.69793
 Alpha  occ. eigenvalues --   -0.69666  -0.69624  -0.67806  -0.67365  -0.67253
 Alpha  occ. eigenvalues --   -0.67043  -0.66857  -0.66738  -0.66556  -0.66370
 Alpha  occ. eigenvalues --   -0.65856  -0.65599  -0.65421  -0.65061  -0.64438
 Alpha  occ. eigenvalues --   -0.63921  -0.63729  -0.63522  -0.63444  -0.63277
 Alpha  occ. eigenvalues --   -0.62592  -0.61341  -0.61299  -0.59926  -0.59564
 Alpha  occ. eigenvalues --   -0.58835  -0.58431  -0.58216  -0.57965  -0.56880
 Alpha  occ. eigenvalues --   -0.56331  -0.56293  -0.55896  -0.55463  -0.55278
 Alpha  occ. eigenvalues --   -0.53312  -0.52844  -0.52788  -0.52208  -0.51951
 Alpha  occ. eigenvalues --   -0.51721  -0.51663  -0.51244  -0.51122  -0.46424
 Alpha  occ. eigenvalues --   -0.46113  -0.45866  -0.45459  -0.45283  -0.45146
 Alpha  occ. eigenvalues --   -0.39923  -0.39814  -0.39213
 Alpha virt. eigenvalues --   -0.28462  -0.27341  -0.26991  -0.26469  -0.25897
 Alpha virt. eigenvalues --   -0.25617  -0.23145  -0.21797  -0.21582  -0.19331
 Alpha virt. eigenvalues --   -0.19287  -0.19087  -0.17741  -0.15351  -0.15289
 Alpha virt. eigenvalues --   -0.15169  -0.15087  -0.14658  -0.14246  -0.13555
 Alpha virt. eigenvalues --   -0.13176  -0.09807  -0.09227  -0.09123  -0.08736
 Alpha virt. eigenvalues --   -0.08486  -0.08446  -0.07605  -0.07183  -0.06854
 Alpha virt. eigenvalues --   -0.04832  -0.04351  -0.04122  -0.04005  -0.03466
 Alpha virt. eigenvalues --   -0.03315  -0.03271  -0.02418  -0.02308  -0.02058
 Alpha virt. eigenvalues --   -0.01546  -0.01356  -0.01197  -0.01108  -0.00900
 Alpha virt. eigenvalues --   -0.00795  -0.00685  -0.00590  -0.00154   0.00280
 Alpha virt. eigenvalues --    0.00446   0.01423   0.01612   0.02153   0.02748
 Alpha virt. eigenvalues --    0.02818   0.03062   0.03641   0.04172   0.05003
 Alpha virt. eigenvalues --    0.05353   0.05757   0.05793   0.05973   0.06309
 Alpha virt. eigenvalues --    0.06791   0.07303   0.07342   0.07420   0.07742
 Alpha virt. eigenvalues --    0.08024   0.08134   0.08370   0.08584   0.09002
 Alpha virt. eigenvalues --    0.09088   0.10445   0.10729   0.10975   0.11426
 Alpha virt. eigenvalues --    0.11784   0.11923   0.12047   0.12175   0.12554
 Alpha virt. eigenvalues --    0.12581   0.12792   0.13030   0.13235   0.13691
 Alpha virt. eigenvalues --    0.13817   0.14018   0.14041   0.14337   0.14612
 Alpha virt. eigenvalues --    0.14858   0.15168   0.15514   0.15548   0.16005
 Alpha virt. eigenvalues --    0.16101   0.16566   0.16646   0.17081   0.17147
 Alpha virt. eigenvalues --    0.17450   0.17548   0.18181   0.18590   0.18849
 Alpha virt. eigenvalues --    0.19143   0.19229   0.19700   0.19897   0.20141
 Alpha virt. eigenvalues --    0.20238   0.20729   0.20947   0.21176   0.21427
 Alpha virt. eigenvalues --    0.21638   0.21943   0.22494   0.22707   0.23078
 Alpha virt. eigenvalues --    0.23258   0.23425   0.23631   0.23770   0.23894
 Alpha virt. eigenvalues --    0.24249   0.24413   0.25027   0.25458   0.25834
 Alpha virt. eigenvalues --    0.26207   0.26468   0.26676   0.27140   0.27303
 Alpha virt. eigenvalues --    0.27582   0.27824   0.28082   0.28271   0.28489
 Alpha virt. eigenvalues --    0.29458   0.29573   0.29808   0.30099   0.30425
 Alpha virt. eigenvalues --    0.30871   0.31199   0.31884   0.32260   0.33367
 Alpha virt. eigenvalues --    0.33776   0.34231   0.34595   0.34924   0.35044
 Alpha virt. eigenvalues --    0.35409   0.35772   0.36343   0.36726   0.37075
 Alpha virt. eigenvalues --    0.37846   0.38214   0.38977   0.39086   0.39898
 Alpha virt. eigenvalues --    0.40077   0.40215   0.40798   0.41138   0.41432
 Alpha virt. eigenvalues --    0.41816   0.42227   0.42587   0.42911   0.43314
 Alpha virt. eigenvalues --    0.43597   0.44451   0.44717   0.45118   0.45890
 Alpha virt. eigenvalues --    0.46137   0.47026   0.47185   0.47891   0.48239
 Alpha virt. eigenvalues --    0.48926   0.48983   0.49125   0.50455   0.50735
 Alpha virt. eigenvalues --    0.51651   0.52031   0.52315   0.53016   0.53272
 Alpha virt. eigenvalues --    0.53383   0.53720   0.54249   0.55271   0.55752
 Alpha virt. eigenvalues --    0.56429   0.57929   0.58387   0.59117   0.59710
 Alpha virt. eigenvalues --    0.60256   0.60400   0.60493   0.61100   0.61372
 Alpha virt. eigenvalues --    0.61874   0.62322   0.63254   0.63786   0.64145
 Alpha virt. eigenvalues --    0.64856   0.65468   0.66423   0.67100   0.67817
 Alpha virt. eigenvalues --    0.68298   0.69089   0.73307   0.73403   0.74861
 Alpha virt. eigenvalues --    0.76365   0.76939   0.78450   0.78886   0.79241
 Alpha virt. eigenvalues --    0.79548   0.81453   0.82034   0.82061   0.82878
 Alpha virt. eigenvalues --    0.82971   0.83365   0.83995   0.84919   0.85110
 Alpha virt. eigenvalues --    0.86427   0.87725   0.88685   0.89211   0.89722
 Alpha virt. eigenvalues --    0.90617   0.92171   0.92455   0.93121   0.93680
 Alpha virt. eigenvalues --    0.93915   0.94456   0.94995   0.95155   0.96079
 Alpha virt. eigenvalues --    0.96899   0.98576   0.99213   0.99490   1.00431
 Alpha virt. eigenvalues --    1.02595   1.03006   1.05692   1.06560   1.07039
 Alpha virt. eigenvalues --    1.08854   1.09018   1.09477   1.10381   1.11165
 Alpha virt. eigenvalues --    1.12575   1.12991   1.14229   1.16475   1.17008
 Alpha virt. eigenvalues --    1.18045   1.19099   1.19237   1.19693   1.21456
 Alpha virt. eigenvalues --    1.22040   1.23790   1.26986   1.28011   1.29231
 Alpha virt. eigenvalues --    1.29972   1.30211   1.30777   1.33703   1.35469
 Alpha virt. eigenvalues --    1.35856   1.37421   1.38145   1.39130   1.40292
 Alpha virt. eigenvalues --    1.41408   1.42145   1.44494   1.46148   1.48851
 Alpha virt. eigenvalues --    1.49211   1.50971   1.58347   1.61517   1.63034
 Alpha virt. eigenvalues --    1.65429   3.14604  12.89975  22.43114  22.43603
 Alpha virt. eigenvalues --   22.46945  22.52315  22.53742  22.54069  22.54500
 Alpha virt. eigenvalues --   22.54878  22.56598  22.60641  22.62603  22.63180
 Alpha virt. eigenvalues --   22.63316  22.63972  22.64709  22.66982  22.67800
 Alpha virt. eigenvalues --   22.69253  22.70801  22.71530  22.71588  22.75855
 Alpha virt. eigenvalues --   22.76720  22.78785  22.80649  22.81067  22.81811
 Alpha virt. eigenvalues --   22.81936  22.82163  22.83299  22.85025  22.85557
 Alpha virt. eigenvalues --   22.85803  22.86871  22.87762  22.88955  31.66835
 Alpha virt. eigenvalues --   31.67438  31.68181  31.70334  31.70434  31.75510
 Alpha virt. eigenvalues --   48.84612  48.87395  48.89951 200.45311
          Condensed to atoms (all electrons):
 Mulliken atomic charges:
              1
     1  Os   1.121661
     2  N   -0.355980
     3  C   -0.193584
     4  C   -0.295754
     5  C   -0.375881
     6  C    0.485386
     7  C   -0.026281
     8  C   -0.442561
     9  C   -0.422000
    10  C    0.459074
    11  C   -0.033137
    12  C   -0.369806
    13  C   -0.283567
    14  C   -0.171865
    15  N   -0.340829
    16  N   -0.300434
    17  C   -0.233874
    18  C   -0.295093
    19  C   -0.379679
    20  C    0.477972
    21  C   -0.024877
    22  C   -0.433508
    23  C   -0.430590
    24  C    0.475728
    25  C   -0.004307
    26  C   -0.386081
    27  C   -0.301203
    28  C   -0.202524
    29  N   -0.314295
    30  N   -0.320837
    31  C   -0.214141
    32  C   -0.293719
    33  C   -0.390932
    34  C    0.461242
    35  C   -0.009273
    36  C   -0.433315
    37  C   -0.386295
    38  C    0.484635
    39  C    0.027637
    40  C   -0.399710
    41  C   -0.299120
    42  C   -0.185863
    43  N   -0.342948
    44  H    0.325651
    45  H    0.322308
    46  H    0.336906
    47  H    0.334702
    48  H    0.329075
    49  H    0.340030
    50  H    0.314135
    51  H    0.332747
    52  H    0.319872
    53  H    0.328147
    54  H    0.340055
    55  H    0.325975
    56  H    0.327686
    57  H    0.342323
    58  H    0.328591
    59  H    0.326724
    60  H    0.321996
    61  H    0.328049
    62  H    0.343940
    63  H    0.326249
    64  H    0.310890
    65  H    0.335854
    66  H    0.319370
    67  H    0.339252
 Sum of Mulliken charges=   2.00000
 Atomic charges with hydrogens summed into heavy atoms:
              1
     1  Os   1.121661
     2  N   -0.355980
     3  C    0.132067
     4  C    0.026554
     5  C   -0.038975
     6  C    0.485386
     7  C   -0.026281
     8  C   -0.107858
     9  C   -0.092926
    10  C    0.459074
    11  C   -0.033137
    12  C   -0.029776
    13  C    0.030568
    14  C    0.160882
    15  N   -0.340829
    16  N   -0.300434
    17  C    0.085998
    18  C    0.033055
    19  C   -0.039625
    20  C    0.477972
    21  C   -0.024877
    22  C   -0.107533
    23  C   -0.102904
    24  C    0.475728
    25  C   -0.004307
    26  C   -0.043758
    27  C    0.027388
    28  C    0.124200
    29  N   -0.314295
    30  N   -0.320837
    31  C    0.107855
    32  C    0.034330
    33  C   -0.046992
    34  C    0.461242
    35  C   -0.009273
    36  C   -0.107066
    37  C   -0.075405
    38  C    0.484635
    39  C    0.027637
    40  C   -0.063856
    41  C    0.020250
    42  C    0.153389
    43  N   -0.342948
    44  H    0.000000
    45  H    0.000000
    46  H    0.000000
    47  H    0.000000
    48  H    0.000000
    49  H    0.000000
    50  H    0.000000
    51  H    0.000000
    52  H    0.000000
    53  H    0.000000
    54  H    0.000000
    55  H    0.000000
    56  H    0.000000
    57  H    0.000000
    58  H    0.000000
    59  H    0.000000
    60  H    0.000000
    61  H    0.000000
    62  H    0.000000
    63  H    0.000000
    64  H    0.000000
    65  H    0.000000
    66  H    0.000000
    67  H    0.000000
 Sum of Mulliken charges=   2.00000
 Entering OneElI...
 OneElI was handed786036142 working-precision words.
 Multipole integrals L=0 to 4 MinM= 0 MaxM= 0.
 Requested accuracy = 0.1000D-12
 PrsmSu:  NPrtUS=   1 ThrOK=F
 PRISM was handed   783789909 working-precision words and 38127 shell-pairs
 Electronic moments (au):
  -296.00000000     3.57668552    -9.50635281    -4.82668502
 -7179.31710078 -6507.41669406 -3389.66243096    -0.61677466
    -1.66518319    -0.64718219 -7085.62611312-13535.00413959
  -173.07197628  7879.23922130 14233.98408841   610.96976465
  -863.51116261  -737.53744616  -754.71810997  -466.55543815
******************************-81962.54003491 -1319.43746783
-42523.24625679 -6659.07958558 27211.95759764  -162.12342717
 -5252.52587864***************-81885.94083844-70237.78426631
-22492.12136943 42733.64969615  5253.60803806
 Electronic spatial extent (au):  <R**2>= 17076.3962
 Nuclear    moments (au):
   298.00000000    -3.61659052     9.73306546     4.87272776
  7073.53430325  6393.99961722  3253.01236642     0.58667520
     0.29371102    -0.79044297  7197.90690955 13741.61912649
   163.90614922 -7997.44398151-14454.95302654  -628.97314389
   885.07064525   750.11485721   764.44250347   481.33667808
384888.56764508328241.67520002 71421.20300090  1362.71448610
 43559.43520592  6831.83680283-28045.57071240    86.52317268
  5399.05652102106748.89110028 77208.58261765 65768.99942260
 23029.11993079-43833.16794228 -5407.88696649
 Total      moments (au):
     2.00000000    -0.03990500     0.22671265     0.04604274
  -105.78279753  -113.41707684  -136.65006454    -0.03009946
    -1.37147217    -1.43762516   112.28079643   206.61498690
    -9.16582706  -118.20476021  -220.96893812   -18.00337924
    21.55948264    12.57741105     9.72439350    14.78123993
-19306.36119401-17854.77921550-10541.33703401    43.27701827
  1036.18894913   172.75721725  -833.61311476   -75.60025450
   146.53064238 -6560.39135141 -4677.35822079 -4468.78484370
   536.99856136 -1099.51824612  -154.27892843
 Charge=     2.0000 electrons
 Dipole moment (field-independent basis, Debye):
    X=    -0.1014    Y=     0.5762    Z=     0.1170  Tot=     0.5967
 Quadrupole moment (field-independent basis, Debye-Ang):
   XX=  -142.2815   YY=  -152.5498   ZZ=  -183.7990
   XY=    -0.0405   XZ=    -1.8447   YZ=    -1.9337
 Traceless Quadrupole moment (field-independent basis, Debye-Ang):
   XX=    17.2620   YY=     6.9936   ZZ=   -24.2556
   XY=    -0.0405   XZ=    -1.8447   YZ=    -1.9337
 Octapole moment (field-independent basis, Debye-Ang**2):
  XXX=    79.9171  YYY=   147.0606  ZZZ=    -6.5239  XYY=   -84.1336
  XXY=  -157.2772  XXZ=   -12.8141  XZZ=    15.3452  YZZ=     8.9521
  YYZ=     6.9214  XYZ=    10.5207
 Hexadecapole moment (field-independent basis, Debye-Ang**3):
 XXXX= -7271.7008 YYYY= -6724.9655 ZZZZ= -3970.3727 XXXY=    16.3002
 XXXZ=   390.2784 YYYX=    65.0686 YYYZ=  -313.9786 ZZZX=   -28.4747
 ZZZY=    55.1905 XXYY= -2470.9578 XXZZ= -1761.7172 YYZZ= -1683.1585
 XXYZ=   202.2594 YYXZ=  -414.1313 ZZXY=   -58.1088
 N-N= 5.452172880134D+03 E-N=-1.501189653776D+04  KE= 1.742558291198D+03
 Entering OneElI...
 OneElI was handed785519862 working-precision words.
 Calculate electrostatic properties
    NBasis =   507  MinDer = 0  MaxDer = 0
    NGrid  =    67  NMatD  =   1
 Requested accuracy = 0.1000D-12
 PrsmSu:  NPrtUS=  12 ThrOK=T
 PRISM was handed    64689654 working-precision words and 32122 shell-pairs
 PRISM was handed    64689654 working-precision words and 32122 shell-pairs
 PRISM was handed    64689654 working-precision words and 32122 shell-pairs
 PRISM was handed    64689654 working-precision words and 32122 shell-pairs
 PRISM was handed    64689654 working-precision words and 32122 shell-pairs
 PRISM was handed    64689654 working-precision words and 32122 shell-pairs
 PRISM was handed    64689654 working-precision words and 32122 shell-pairs
 PRISM was handed    64689654 working-precision words and 32122 shell-pairs
 PRISM was handed    64689654 working-precision words and 32122 shell-pairs
 PRISM was handed    64689654 working-precision words and 32122 shell-pairs
 PRISM was handed    64689654 working-precision words and 32122 shell-pairs
 PRISM was handed    64689654 working-precision words and 32122 shell-pairs
 --------------------------------------------------------
       Center         ----      EFG at Nuclei      ----
                      3XX-RR        3YY-RR        3ZZ-RR
 --------------------------------------------------------
     1   Atom       -0.021282     -0.025766      0.047047
     2   Atom        0.101185     -0.004340     -0.096846
     3   Atom        0.251026     -0.140743     -0.110283
     4   Atom        0.047334     -0.123768      0.076434
     5   Atom        0.161769     -0.167707      0.005938
     6   Atom        0.082595     -0.125692      0.043097
     7   Atom       -0.061965      0.018069      0.043896
     8   Atom        0.062557     -0.106258      0.043701
     9   Atom        0.107596     -0.148154      0.040558
    10   Atom        0.073254     -0.099180      0.025926
    11   Atom        0.022725     -0.066517      0.043792
    12   Atom        0.187338     -0.178299     -0.009039
    13   Atom        0.028047     -0.102043      0.073996
    14   Atom        0.246717     -0.122075     -0.124643
    15   Atom        0.267373     -0.218316     -0.049057
    16   Atom        0.364983     -0.233088     -0.131895
    17   Atom        0.131927     -0.016385     -0.115541
    18   Atom        0.007984     -0.004298     -0.003687
    19   Atom        0.142765     -0.069016     -0.073750
    20   Atom        0.034841     -0.013081     -0.021760
    21   Atom        0.061971     -0.082657      0.020686
    22   Atom        0.119019     -0.080285     -0.038734
    23   Atom       -0.012626      0.037810     -0.025185
    24   Atom        0.050199     -0.028947     -0.021253
    25   Atom       -0.090698      0.065059      0.025639
    26   Atom        0.063168      0.008834     -0.072002
    27   Atom        0.047975     -0.037405     -0.010571
    28   Atom        0.152236     -0.023595     -0.128641
    29   Atom       -0.121901      0.232055     -0.110154
    30   Atom       -0.220911      0.349148     -0.128237
    31   Atom       -0.126809      0.249092     -0.122282
    32   Atom       -0.106171      0.051793      0.054378
    33   Atom       -0.166270      0.188714     -0.022443
    34   Atom       -0.087659      0.066699      0.020961
    35   Atom       -0.036336      0.013083      0.023253
    36   Atom       -0.113172      0.101700      0.011472
    37   Atom       -0.066686      0.039288      0.027399
    38   Atom       -0.091886      0.057207      0.034679
    39   Atom        0.014860     -0.056571      0.041711
    40   Atom       -0.136116      0.126445      0.009671
    41   Atom       -0.111329      0.041162      0.070168
    42   Atom       -0.139996      0.259045     -0.119049
    43   Atom       -0.065259      0.098664     -0.033405
    44   Atom       -0.468484      0.318378      0.150106
    45   Atom        0.276533      0.073327     -0.349860
    46   Atom       -0.226939      0.134544      0.092395
    47   Atom       -0.285107      0.142087      0.143019
    48   Atom       -0.460973      0.326849      0.134124
    49   Atom       -0.411274      0.316818      0.094456
    50   Atom        0.291715      0.058567     -0.350282
    51   Atom       -0.308288      0.120037      0.188251
    52   Atom       -0.010195     -0.174545      0.184740
    53   Atom        0.199166     -0.014849     -0.184317
    54   Atom       -0.454686      0.285984      0.168702
    55   Atom       -0.473628      0.281104      0.192523
    56   Atom        0.026016     -0.217607      0.191591
    57   Atom        0.079033     -0.242277      0.163244
    58   Atom        0.128659      0.029284     -0.157943
    59   Atom       -0.462219      0.245083      0.217136
    60   Atom        0.101991     -0.282725      0.180734
    61   Atom        0.035715      0.312035     -0.347750
    62   Atom        0.296953     -0.448496      0.151543
    63   Atom        0.299104     -0.480977      0.181873
    64   Atom        0.152701     -0.304958      0.152257
    65   Atom        0.140862     -0.206035      0.065173
    66   Atom        0.037871      0.289988     -0.327859
    67   Atom        0.317367     -0.566180      0.248813
 --------------------------------------------------------
                        XY            XZ            YZ
 --------------------------------------------------------
     1   Atom       -0.000876     -0.008856     -0.003994
     2   Atom       -0.273215     -0.330339      0.137197
     3   Atom       -0.105004      0.045339      0.039202
     4   Atom       -0.026392      0.076325      0.188442
     5   Atom       -0.113545     -0.008199      0.187180
     6   Atom       -0.047744      0.053312      0.139627
     7   Atom       -0.059703     -0.100512      0.106177
     8   Atom       -0.104219     -0.039820      0.170589
     9   Atom       -0.020389      0.126285      0.124241
    10   Atom       -0.069400      0.026637      0.141330
    11   Atom        0.046831      0.122745      0.043555
    12   Atom       -0.078803      0.100413      0.159676
    13   Atom       -0.058566      0.033429      0.194924
    14   Atom       -0.131134      0.003686      0.038618
    15   Atom        0.083816      0.333540     -0.040284
    16   Atom        0.035062      0.280678      0.110545
    17   Atom        0.200796      0.005643     -0.091342
    18   Atom        0.050250      0.095481     -0.188888
    19   Atom        0.135792      0.143992     -0.150762
    20   Atom        0.073862      0.069242     -0.153116
    21   Atom       -0.057026      0.143950     -0.001258
    22   Atom        0.056409      0.156225     -0.108901
    23   Atom        0.103086      0.031212     -0.188204
    24   Atom        0.054109      0.108129     -0.134584
    25   Atom        0.020510     -0.027565     -0.121013
    26   Atom        0.148261      0.074524     -0.203966
    27   Atom        0.026326      0.152189     -0.170843
    28   Atom        0.186464      0.059378     -0.031712
    29   Atom        0.244470     -0.199547     -0.236787
    30   Atom        0.114727      0.011338     -0.320945
    31   Atom       -0.109284     -0.056429      0.020143
    32   Atom       -0.048544     -0.219872     -0.022015
    33   Atom       -0.030728     -0.186933     -0.065696
    34   Atom       -0.048104     -0.173550     -0.001044
    35   Atom        0.067242     -0.049019     -0.110978
    36   Atom        0.021460     -0.151950     -0.095813
    37   Atom       -0.095417     -0.181623      0.080023
    38   Atom       -0.017257     -0.164071     -0.024528
    39   Atom       -0.066986     -0.107210      0.096018
    40   Atom       -0.073896     -0.201475      0.042777
    41   Atom        0.004307     -0.225754     -0.046203
    42   Atom       -0.045950     -0.033562      0.005503
    43   Atom       -0.289085     -0.150308      0.383247
    44   Atom        0.006090     -0.354331     -0.009157
    45   Atom       -0.078776     -0.137009     -0.408871
    46   Atom        0.315529      0.338034     -0.207481
    47   Atom        0.344172      0.325546     -0.194993
    48   Atom       -0.004205     -0.376663     -0.015191
    49   Atom       -0.059095     -0.402352     -0.041856
    50   Atom       -0.021501     -0.044857     -0.411945
    51   Atom        0.365644      0.281702     -0.175929
    52   Atom       -0.397055      0.193492      0.259797
    53   Atom        0.186025     -0.240133      0.414335
    54   Atom       -0.159234     -0.343733     -0.060611
    55   Atom       -0.180828     -0.323911     -0.059850
    56   Atom       -0.400466      0.187603      0.276063
    57   Atom       -0.366627      0.186134      0.303321
    58   Atom        0.233358     -0.309525      0.385783
    59   Atom       -0.244185     -0.290276     -0.077014
    60   Atom        0.360493      0.180000     -0.273580
    61   Atom       -0.033982      0.451054      0.056035
    62   Atom       -0.118121      0.063588      0.346747
    63   Atom       -0.116456      0.059526      0.317664
    64   Atom        0.316198      0.171418     -0.303558
    65   Atom        0.282228      0.199779     -0.334075
    66   Atom       -0.082608      0.441315      0.126263
    67   Atom       -0.124267      0.048051      0.263937
 --------------------------------------------------------


 ---------------------------------------------------------------------------------
              Nuclear Quadrupole in Principal Axis System
 ---------------------------------------------------------------------------------

       Atom             a.u.   MegaHertz   Gauss  10(-4) cm-1        Axes

              Baa    -0.0264    -1.111    -0.396    -0.371  0.3141  0.9452  0.0892
     1 Os(189 Bbb    -0.0219    -0.922    -0.329    -0.308  0.9411 -0.3223  0.1021
              Bcc     0.0484     2.033     0.725     0.678 -0.1253 -0.0519  0.9908
 
              Baa    -0.3554   -13.706    -4.891    -4.572  0.6574  0.2313  0.7172
     2 N(14)  Bbb    -0.1654    -6.378    -2.276    -2.128  0.2444  0.8348 -0.4933
              Bcc     0.5208    20.084     7.167     6.699  0.7129 -0.4995 -0.4923
 
              Baa    -0.1960   -26.305    -9.386    -8.775  0.2455  0.8260 -0.5074
     3 C(13)  Bbb    -0.0844   -11.331    -4.043    -3.780  0.0448  0.5132  0.8571
              Bcc     0.2805    37.636    13.430    12.554  0.9684 -0.2331  0.0890
 
              Baa    -0.2502   -33.576   -11.981   -11.200  0.2078  0.8255 -0.5248
     4 C(13)  Bbb     0.0428     5.740     2.048     1.915  0.9232 -0.3429 -0.1737
              Bcc     0.2074    27.836     9.933     9.285  0.3234  0.4484  0.8333
 
              Baa    -0.3055   -40.992   -14.627   -13.673  0.1960  0.8427 -0.5014
     5 C(13)  Bbb     0.0808    10.843     3.869     3.617  0.5438  0.3321  0.7707
              Bcc     0.2247    30.149    10.758    10.057  0.8160 -0.4237 -0.3932
 
              Baa    -0.2197   -29.484   -10.521    -9.835  0.2198  0.8423 -0.4921
     6 C(13)  Bbb     0.0844    11.326     4.041     3.778  0.8358 -0.4227 -0.3503
              Bcc     0.1353    18.159     6.480     6.057  0.5031  0.3343  0.7970
 
              Baa    -0.1228   -16.481    -5.881    -5.497  0.8411 -0.0495  0.5386
     7 C(13)  Bbb    -0.0677    -9.087    -3.243    -3.031  0.3455  0.8154 -0.4646
              Bcc     0.1905    25.568     9.123     8.529 -0.4162  0.5768  0.7029
 
              Baa    -0.2332   -31.298   -11.168   -10.440  0.2315  0.8428 -0.4859
     8 C(13)  Bbb     0.0201     2.703     0.965     0.902  0.8100  0.1095  0.5761
              Bcc     0.2131    28.594    10.203     9.538 -0.5387  0.5270  0.6573
 
              Baa    -0.2281   -30.606   -10.921   -10.209  0.2379  0.8342 -0.4976
     9 C(13)  Bbb     0.0122     1.639     0.585     0.547  0.6390 -0.5202 -0.5666
              Bcc     0.2159    28.968    10.336     9.663  0.7315  0.1832  0.6568
 
              Baa    -0.2099   -28.166   -10.050    -9.395  0.2493  0.8180 -0.5184
    10 C(13)  Bbb     0.0850    11.412     4.072     3.807  0.8796  0.0328  0.4746
              Bcc     0.1249    16.754     5.978     5.588 -0.4052  0.5743  0.7113
 
              Baa    -0.0926   -12.421    -4.432    -4.143  0.7285 -0.4578 -0.5096
    11 C(13)  Bbb    -0.0808   -10.848    -3.871    -3.619  0.1935  0.8511 -0.4880
              Bcc     0.1734    23.269     8.303     7.762  0.6571  0.2569  0.7086
 
              Baa    -0.3037   -40.751   -14.541   -13.593  0.2384  0.8175 -0.5243
    12 C(13)  Bbb     0.0737     9.891     3.529     3.299 -0.2806  0.5748  0.7687
              Bcc     0.2300    30.861    11.012    10.294  0.9297 -0.0361  0.3665
 
              Baa    -0.2445   -32.814   -11.709   -10.946  0.2398  0.8167 -0.5249
    13 C(13)  Bbb     0.0446     5.985     2.135     1.996  0.9705 -0.1890  0.1494
              Bcc     0.1999    26.830     9.573     8.949 -0.0228  0.5453  0.8379
 
              Baa    -0.1870   -25.098    -8.956    -8.372  0.2512  0.8163 -0.5201
    14 C(13)  Bbb    -0.1017   -13.650    -4.871    -4.553  0.1754  0.4901  0.8539
              Bcc     0.2888    38.748    13.826    12.925  0.9519 -0.3057 -0.0201
 
              Baa    -0.3219   -12.413    -4.429    -4.141 -0.4524  0.6168  0.6442
    15 N(14)  Bbb    -0.1600    -6.170    -2.202    -2.058  0.2791  0.7839 -0.5546
              Bcc     0.4818    18.583     6.631     6.199  0.8470  0.0711  0.5268
 
              Baa    -0.3362   -12.965    -4.626    -4.325 -0.2474 -0.6682  0.7016
    16 N(14)  Bbb    -0.1635    -6.305    -2.250    -2.103 -0.3548  0.7363  0.5761
              Bcc     0.4997    19.271     6.876     6.428  0.9016  0.1064  0.4193
 
              Baa    -0.2185   -29.314   -10.460    -9.778 -0.3971  0.6755  0.6213
    17 C(13)  Bbb    -0.0593    -7.963    -2.841    -2.656  0.4478 -0.4483  0.7736
              Bcc     0.2778    37.277    13.301    12.434  0.8011  0.5854 -0.1245
 
              Baa    -0.2367   -31.762   -11.334   -10.595 -0.3912  0.6299  0.6709
    18 C(13)  Bbb     0.0452     6.066     2.164     2.023  0.8980  0.4207  0.1287
              Bcc     0.1915    25.696     9.169     8.571  0.2012 -0.6529  0.7303
 
              Baa    -0.3089   -41.447   -14.789   -13.825 -0.4013  0.6394  0.6558
    19 C(13)  Bbb     0.0793    10.642     3.797     3.550  0.0220  0.7225 -0.6910
              Bcc     0.2296    30.805    10.992    10.276  0.9157  0.2629  0.3040
 
              Baa    -0.2120   -28.453   -10.153    -9.491 -0.3792  0.6486  0.6599
    20 C(13)  Bbb     0.0760    10.192     3.637     3.400  0.9228  0.2118  0.3220
              Bcc     0.1361    18.261     6.516     6.091  0.0690  0.7310 -0.6788
 
              Baa    -0.1336   -17.927    -6.397    -5.980  0.5720  0.6273 -0.5286
    21 C(13)  Bbb    -0.0602    -8.084    -2.885    -2.697 -0.3121  0.7623  0.5670
              Bcc     0.1938    26.011     9.282     8.676  0.7586 -0.1593  0.6318
 
              Baa    -0.2330   -31.262   -11.155   -10.428 -0.3981  0.6256  0.6709
    22 C(13)  Bbb     0.0175     2.347     0.838     0.783  0.3582  0.7793 -0.5142
              Bcc     0.2155    28.914    10.317     9.645  0.8445 -0.0357  0.5343
 
              Baa    -0.2246   -30.142   -10.755   -10.054 -0.4048  0.6326  0.6603
    23 C(13)  Bbb     0.0109     1.456     0.520     0.486  0.8727  0.0518  0.4854
              Bcc     0.2138    28.685    10.236     9.568  0.2729  0.7728 -0.5730
 
              Baa    -0.2107   -28.269   -10.087    -9.430 -0.4069  0.6188  0.6720
    24 C(13)  Bbb     0.0686     9.201     3.283     3.069  0.6750  0.6993 -0.2353
              Bcc     0.1421    19.069     6.804     6.361  0.6155 -0.3578  0.7022
 
              Baa    -0.0978   -13.125    -4.683    -4.378  0.9298  0.1368  0.3417
    25 C(13)  Bbb    -0.0744    -9.986    -3.563    -3.331 -0.3457  0.6434  0.6830
              Bcc     0.1722    23.111     8.246     7.709  0.1264  0.7532 -0.6456
 
              Baa    -0.3039   -40.775   -14.550   -13.601 -0.3899  0.6256  0.6757
    26 C(13)  Bbb     0.0847    11.370     4.057     3.793  0.7542 -0.2040  0.6241
              Bcc     0.2191    29.405    10.492     9.808  0.5283  0.7530 -0.3923
 
              Baa    -0.2499   -33.536   -11.967   -11.186 -0.4046  0.6029  0.6876
    27 C(13)  Bbb     0.0349     4.687     1.672     1.563  0.7106  0.6806 -0.1786
              Bcc     0.2150    28.849    10.294     9.623  0.5757 -0.4163  0.7038
 
              Baa    -0.1952   -26.200    -9.349    -8.739 -0.4357  0.5977  0.6730
    28 C(13)  Bbb    -0.0780   -10.470    -3.736    -3.492  0.3022 -0.6072  0.7349
              Bcc     0.2733    36.669    13.085    12.232  0.8478  0.5236  0.0839
 
              Baa    -0.3161   -12.191    -4.350    -4.066  0.7403 -0.0403  0.6710
    29 N(14)  Bbb    -0.1900    -7.328    -2.615    -2.445 -0.5048  0.6259  0.5945
              Bcc     0.5061    19.519     6.965     6.511  0.4440  0.7789 -0.4430
 
              Baa    -0.3288   -12.683    -4.526    -4.231 -0.5368  0.4335  0.7238
    30 N(14)  Bbb    -0.1944    -7.498    -2.676    -2.501  0.8335  0.1397  0.5345
              Bcc     0.5233    20.181     7.201     6.732  0.1306  0.8903 -0.4363
 
              Baa    -0.1922   -25.793    -9.204    -8.604  0.7903  0.1688  0.5890
    31 C(13)  Bbb    -0.0893   -11.979    -4.274    -3.996 -0.5507 -0.2257  0.8036
              Bcc     0.2815    37.772    13.478    12.599 -0.2686  0.9595  0.0854
 
              Baa    -0.2685   -36.036   -12.858   -12.020  0.8106  0.1615  0.5629
    32 C(13)  Bbb     0.0597     8.016     2.860     2.674 -0.0950  0.9848 -0.1457
              Bcc     0.2088    28.020     9.998     9.346 -0.5779  0.0646  0.8136
 
              Baa    -0.3027   -40.613   -14.492   -13.547  0.8111  0.1271  0.5709
    33 C(13)  Bbb     0.0931    12.499     4.460     4.169 -0.5775  0.3282  0.7475
              Bcc     0.2095    28.115    10.032     9.378  0.0924  0.9360 -0.3396
 
              Baa    -0.2206   -29.607   -10.565    -9.876  0.8043  0.1367  0.5783
    34 C(13)  Bbb     0.0633     8.494     3.031     2.833  0.0737  0.9427 -0.3254
              Bcc     0.1573    21.113     7.534     7.043 -0.5897  0.3043  0.7481
 
              Baa    -0.0994   -13.337    -4.759    -4.449 -0.3970  0.7539  0.5235
    35 C(13)  Bbb    -0.0637    -8.542    -3.048    -2.849  0.8349  0.0597  0.5471
              Bcc     0.1630    21.879     7.807     7.298  0.3812  0.6543 -0.6531
 
              Baa    -0.2194   -29.435   -10.503    -9.819  0.8059  0.1192  0.5800
    36 C(13)  Bbb     0.0187     2.505     0.894     0.835 -0.4751  0.7149  0.5131
              Bcc     0.2007    26.931     9.610     8.983  0.3534  0.6890 -0.6327
 
              Baa    -0.2106   -28.259   -10.083    -9.426  0.8085  0.1245  0.5752
    37 C(13)  Bbb    -0.0311    -4.175    -1.490    -1.393  0.2160  0.8463 -0.4869
              Bcc     0.2417    32.433    11.573    10.819 -0.5474  0.5179  0.6573
 
              Baa    -0.2074   -27.837    -9.933    -9.285  0.8182  0.1057  0.5651
    38 C(13)  Bbb     0.0590     7.913     2.823     2.639 -0.1531  0.9875  0.0369
              Bcc     0.1485    19.924     7.109     6.646 -0.5542 -0.1167  0.8242
 
              Baa    -0.1153   -15.475    -5.522    -5.162  0.0216  0.8594 -0.5108
    39 C(13)  Bbb    -0.0758   -10.170    -3.629    -3.392  0.8123  0.2828  0.5101
              Bcc     0.1911    25.644     9.150     8.554 -0.5828  0.4259  0.6920
 
              Baa    -0.2808   -37.675   -13.443   -12.567  0.8245  0.0909  0.5586
    40 C(13)  Bbb     0.0625     8.384     2.992     2.797  0.3121  0.7503 -0.5828
              Bcc     0.2183    29.291    10.452     9.770 -0.4721  0.6548  0.5902
 
              Baa    -0.2655   -35.632   -12.714   -11.885  0.8229  0.0733  0.5635
    41 C(13)  Bbb     0.0341     4.570     1.631     1.524 -0.1782  0.9749  0.1334
              Bcc     0.2315    31.062    11.084    10.361 -0.5396 -0.2101  0.8153
 
              Baa    -0.1674   -22.469    -8.017    -7.495  0.8233  0.0815  0.5617
    42 C(13)  Bbb    -0.0971   -13.023    -4.647    -4.344 -0.5559 -0.0845  0.8270
              Bcc     0.2645    35.492    12.665    11.839 -0.1148  0.9931  0.0243
 
              Baa    -0.3828   -14.762    -5.268    -4.924  0.3451  0.7026 -0.6223
    43 N(14)  Bbb    -0.1968    -7.592    -2.709    -2.532  0.8264  0.0868  0.5564
              Bcc     0.5796    22.354     7.976     7.456 -0.4450  0.7063  0.5506
 
              Baa    -0.6295  -335.885  -119.852  -112.039  0.9104 -0.0019  0.4137
    44 H(1)   Bbb     0.3033   161.837    57.747    53.983 -0.3347  0.5847  0.7390
              Bcc     0.3262   174.048    62.105    58.056  0.2433  0.8112 -0.5317
 
              Baa    -0.6263  -334.160  -119.237  -111.464  0.1724  0.5114  0.8419
    45 H(1)   Bbb     0.3034   161.872    57.760    53.995  0.9647 -0.2604 -0.0394
              Bcc     0.3229   172.288    61.477    57.469  0.1991  0.8189 -0.5382
 
              Baa    -0.6281  -335.109  -119.575  -111.780  0.7554 -0.4437 -0.4822
    46 H(1)   Bbb     0.3046   162.540    57.998    54.218  0.6295  0.2869  0.7221
              Bcc     0.3234   172.569    61.577    57.563  0.1820  0.8490 -0.4961
 
              Baa    -0.6565  -350.293  -124.993  -116.845  0.7870 -0.4438 -0.4287
    47 H(1)   Bbb     0.3161   168.644    60.177    56.254  0.5777  0.2860  0.7645
              Bcc     0.3405   181.648    64.817    60.591  0.2167  0.8492 -0.4815
 
              Baa    -0.6435  -343.366  -122.521  -114.534  0.8999  0.0107  0.4361
    48 H(1)   Bbb     0.3088   164.787    58.800    54.967 -0.3703  0.5471  0.7507
              Bcc     0.3347   178.579    63.721    59.567  0.2305  0.8370 -0.4963
 
              Baa    -0.6390  -340.962  -121.664  -113.733  0.8725  0.0751  0.4829
    49 H(1)   Bbb     0.3110   165.959    59.218    55.358 -0.4318  0.5812  0.6898
              Bcc     0.3280   175.003    62.445    58.375  0.2289  0.8103 -0.5395
 
              Baa    -0.6085  -324.642  -115.840  -108.289  0.0549  0.5259  0.8487
    50 H(1)   Bbb     0.2931   156.364    55.795    52.157  0.9674 -0.2386  0.0853
              Bcc     0.3154   168.278    60.046    56.131  0.2474  0.8164 -0.5219
 
              Baa    -0.6494  -346.487  -123.635  -115.576  0.8042 -0.4664 -0.3684
    51 H(1)   Bbb     0.3120   166.484    59.406    55.533  0.5432  0.3250  0.7742
              Bcc     0.3374   180.003    64.229    60.042  0.2413  0.8227 -0.5147
 
              Baa    -0.6269  -334.492  -119.355  -111.574  0.5822  0.7238 -0.3705
    52 H(1)   Bbb     0.3005   160.310    57.202    53.474  0.7208 -0.2487  0.6470
              Bcc     0.3265   174.182    62.152    58.101 -0.3761  0.6437  0.6665
 
              Baa    -0.6333  -337.884  -120.565  -112.706  0.3427 -0.5919  0.7295
    53 H(1)   Bbb     0.3068   163.673    58.403    54.595  0.8602  0.5099  0.0095
              Bcc     0.3265   174.211    62.163    58.111 -0.3776  0.6243  0.6839
 
              Baa    -0.6383  -340.579  -121.527  -113.605  0.8998  0.1810  0.3969
    54 H(1)   Bbb     0.3100   165.414    59.024    55.176  0.1263  0.7627 -0.6343
              Bcc     0.3283   175.165    62.503    58.429 -0.4175  0.6209  0.6635
 
              Baa    -0.6442  -343.716  -122.646  -114.651  0.9086  0.2012  0.3661
    55 H(1)   Bbb     0.3096   165.201    58.948    55.105  0.1009  0.7447 -0.6598
              Bcc     0.3346   178.515    63.699    59.546 -0.4054  0.6364  0.6563
 
              Baa    -0.6470  -345.224  -123.185  -115.154  0.5491  0.7496 -0.3696
    56 H(1)   Bbb     0.3108   165.839    59.175    55.318  0.7369 -0.2256  0.6372
              Bcc     0.3362   179.385    64.009    59.837 -0.3943  0.6222  0.6763
 
              Baa    -0.6396  -341.237  -121.762  -113.824  0.4966  0.7676 -0.4052
    57 H(1)   Bbb     0.3104   165.637    59.103    55.250  0.7746 -0.1814  0.6058
              Bcc     0.3291   175.600    62.658    58.574 -0.3916  0.6147  0.6847
 
              Baa    -0.6534  -348.615  -124.394  -116.285  0.4441 -0.5511  0.7065
    58 H(1)   Bbb     0.3174   169.370    60.435    56.496  0.8119  0.5809 -0.0572
              Bcc     0.3359   179.245    63.959    59.790 -0.3789  0.5991  0.7054
 
              Baa    -0.6430  -343.082  -122.420  -114.440  0.9027  0.2768  0.3294
    59 H(1)   Bbb     0.3094   165.064    58.899    55.059  0.0096  0.7526 -0.6585
              Bcc     0.3336   178.018    63.521    59.380 -0.4301  0.5975  0.6767
 
              Baa    -0.6309  -336.623  -120.115  -112.285 -0.4817  0.7925  0.3740
    60 H(1)   Bbb     0.3025   161.404    57.593    53.839 -0.3849 -0.5747  0.7222
              Bcc     0.3284   175.219    62.522    58.447  0.7873  0.2040  0.5818
 
              Baa    -0.6506  -347.122  -123.862  -115.787 -0.5503 -0.0679  0.8322
    61 H(1)   Bbb     0.3161   168.668    60.185    56.262 -0.1551  0.9877 -0.0220
              Bcc     0.3345   178.453    63.677    59.526  0.8204  0.1411  0.5540
 
              Baa    -0.6264  -334.223  -119.259  -111.485  0.1435  0.8995 -0.4127
    62 H(1)   Bbb     0.3040   162.207    57.879    54.106 -0.5670  0.4165  0.7107
              Bcc     0.3224   172.016    61.380    57.378  0.8111  0.1320  0.5698
 
              Baa    -0.6270  -334.513  -119.363  -111.581  0.1393  0.9182 -0.3709
    63 H(1)   Bbb     0.3011   160.671    57.331    53.594 -0.5773  0.3796  0.7230
              Bcc     0.3258   173.842    62.031    57.987  0.8046  0.1134  0.5829
 
              Baa    -0.6230  -332.392  -118.606  -110.874 -0.4205  0.8094  0.4099
    64 H(1)   Bbb     0.2979   158.944    56.715    53.018 -0.4167 -0.5736  0.7052
              Bcc     0.3251   173.448    61.890    57.856  0.8059  0.1257  0.5785
 
              Baa    -0.5937  -316.759  -113.028  -105.660 -0.4258  0.7483  0.5086
    65 H(1)   Bbb     0.2869   153.084    54.624    51.063 -0.3626 -0.6561  0.6618
              Bcc     0.3068   163.676    58.404    54.596  0.8289  0.0974  0.5508
 
              Baa    -0.6470  -345.203  -123.177  -115.147 -0.5483 -0.1590  0.8211
    66 H(1)   Bbb     0.3142   167.628    59.814    55.915 -0.1522  0.9843  0.0890
              Bcc     0.3328   177.576    63.364    59.233  0.8223  0.0762  0.5639
 
              Baa    -0.6622  -353.315  -126.071  -117.853  0.1343  0.9499 -0.2823
    67 H(1)   Bbb     0.3195   170.481    60.832    56.866 -0.5564  0.3080  0.7717
              Bcc     0.3427   182.834    65.240    60.987  0.8199  0.0534  0.5699
 

 ---------------------------------------------------------------------------------

 No NMR shielding tensors so no spin-rotation constants.
 Leave Link  601 at Mon Nov  2 22:12:24 2015, MaxMem=  786432000 cpu:      11.9
 Merz-Kollman atomic radii used.
 Read replacement radii for each type of atom:
 Rad(76) =   1.560000000000D+00
 Atom Element Radius
    1    76    1.56
    2     7    1.50
    3     6    1.50
    4     6    1.50
    5     6    1.50
    6     6    1.50
    7     6    1.50
    8     6    1.50
    9     6    1.50
   10     6    1.50
   11     6    1.50
   12     6    1.50
   13     6    1.50
   14     6    1.50
   15     7    1.50
   16     7    1.50
   17     6    1.50
   18     6    1.50
   19     6    1.50
   20     6    1.50
   21     6    1.50
   22     6    1.50
   23     6    1.50
   24     6    1.50
   25     6    1.50
   26     6    1.50
   27     6    1.50
   28     6    1.50
   29     7    1.50
   30     7    1.50
   31     6    1.50
   32     6    1.50
   33     6    1.50
   34     6    1.50
   35     6    1.50
   36     6    1.50
   37     6    1.50
   38     6    1.50
   39     6    1.50
   40     6    1.50
   41     6    1.50
   42     6    1.50
   43     7    1.50
   44     1    1.20
   45     1    1.20
   46     1    1.20
   47     1    1.20
   48     1    1.20
   49     1    1.20
   50     1    1.20
   51     1    1.20
   52     1    1.20
   53     1    1.20
   54     1    1.20
   55     1    1.20
   56     1    1.20
   57     1    1.20
   58     1    1.20
   59     1    1.20
   60     1    1.20
   61     1    1.20
   62     1    1.20
   63     1    1.20
   64     1    1.20
   65     1    1.20
   66     1    1.20
   67     1    1.20
 Generate VDW surfaces: Layer= 4 Dens= 1 Start= 1.400 Inc= 0.200

 **********************************************************************

            Electrostatic Properties Using The SCF Density

 **********************************************************************

       Atomic Center    1 is at   0.031897 -0.085842 -0.042976
       Atomic Center    2 is at   1.369164 -1.223881 -1.119400
       Atomic Center    3 is at   1.154608 -1.902380 -2.260322
       Atomic Center    4 is at   2.204653 -2.609227 -2.910719
       Atomic Center    5 is at   3.474995 -2.570866 -2.364600
       Atomic Center    6 is at   3.703113 -1.920341 -1.149384
       Atomic Center    7 is at   2.629963 -1.255312 -0.546844
       Atomic Center    8 is at   4.992195 -1.886249 -0.482979
       Atomic Center    9 is at   5.133683 -1.245123  0.649861
       Atomic Center   10 is at   4.053761 -0.566388  1.287845
       Atomic Center   11 is at   2.813253 -0.559828  0.687817
       Atomic Center   12 is at   4.149690  0.201693  2.508665
       Atomic Center   13 is at   3.033191  0.843714  2.967482
       Atomic Center   14 is at   1.839063  0.782175  2.299924
       Atomic Center   15 is at   1.710007  0.076497  1.130857
       Atomic Center   16 is at  -1.668707 -0.386006 -1.177767
       Atomic Center   17 is at  -2.166115  0.317841 -2.145434
       Atomic Center   18 is at  -3.431256  0.175824 -2.713336
       Atomic Center   19 is at  -4.241880 -0.836549 -2.203094
       Atomic Center   20 is at  -3.785337 -1.645427 -1.158690
       Atomic Center   21 is at  -2.497518 -1.396239 -0.621269
       Atomic Center   22 is at  -4.535107 -2.728936 -0.539317
       Atomic Center   23 is at  -4.025843 -3.471826  0.428699
       Atomic Center   24 is at  -2.698117 -3.211492  0.980409
       Atomic Center   25 is at  -1.957760 -2.162707  0.415042
       Atomic Center   26 is at  -2.138921 -3.930630  2.000748
       Atomic Center   27 is at  -0.857642 -3.621190  2.437839
       Atomic Center   28 is at  -0.190838 -2.487214  1.844324
       Atomic Center   29 is at  -0.750245 -1.774602  0.863118
       Atomic Center   30 is at   0.496056  1.691355 -1.015123
       Atomic Center   31 is at   1.251084  1.864238 -2.101034
       Atomic Center   32 is at   1.461615  3.101918 -2.707157
       Atomic Center   33 is at   0.875983  4.224603 -2.139510
       Atomic Center   34 is at   0.107378  4.055580 -1.034578
       Atomic Center   35 is at  -0.118375  2.779354 -0.469668
       Atomic Center   36 is at  -0.547194  5.216043 -0.380276
       Atomic Center   37 is at  -1.260790  5.013587  0.680381
       Atomic Center   38 is at  -1.526198  3.659966  1.326694
       Atomic Center   39 is at  -0.904303  2.564125  0.665030
       Atomic Center   40 is at  -2.230638  3.418998  2.415476
       Atomic Center   41 is at  -2.406312  2.087001  2.879820
       Atomic Center   42 is at  -1.825932  0.969113  2.193837
       Atomic Center   43 is at  -1.060095  1.274025  1.106671
       Atomic Center   44 is at   0.280562 -1.900834 -2.659327
       Atomic Center   45 is at   2.041394 -3.103486 -3.720302
       Atomic Center   46 is at   4.200871 -2.996139 -2.829926
       Atomic Center   47 is at   5.745488 -2.306788 -0.888952
       Atomic Center   48 is at   5.996132 -1.237812  1.064131
       Atomic Center   49 is at   4.985328  0.275943  2.972337
       Atomic Center   50 is at   3.087187  1.351512  3.788648
       Atomic Center   51 is at   1.072116  1.227124  2.654237
       Atomic Center   52 is at  -1.604773  1.012120 -2.500192
       Atomic Center   53 is at  -3.764866  0.743048 -3.412814
       Atomic Center   54 is at  -5.103515 -1.012904 -2.584426
       Atomic Center   55 is at  -5.404206 -2.924183 -0.889547
       Atomic Center   56 is at  -4.555509 -4.187318  0.778301
       Atomic Center   57 is at  -2.614954 -4.666309  2.387418
       Atomic Center   58 is at  -0.436087 -4.150694  3.111629
       Atomic Center   59 is at   0.672693 -2.219374  2.158027
       Atomic Center   60 is at   1.716454  1.104484 -2.458569
       Atomic Center   61 is at   1.985436  3.167896 -3.503296
       Atomic Center   62 is at   1.014659  5.088557 -2.537703
       Atomic Center   63 is at  -0.415336  6.101442 -0.732485
       Atomic Center   64 is at  -1.662014  5.800043  1.066506
       Atomic Center   65 is at  -2.642252  4.148759  2.906265
       Atomic Center   66 is at  -2.930882  1.935643  3.665778
       Atomic Center   67 is at  -1.954280  0.064457  2.461820
      ESP Fit Center   68 is at   1.110343 -3.024023 -0.069400
      ESP Fit Center   69 is at  -0.590377 -2.414754 -1.210322
      ESP Fit Center   70 is at  -0.036357 -3.276826 -1.210322
      ESP Fit Center   71 is at   0.895787 -3.702522 -1.210322
      ESP Fit Center   72 is at   0.409938 -3.865914 -2.260322
      ESP Fit Center   73 is at   0.895787 -0.102238 -3.310322
      ESP Fit Center   74 is at   0.629608 -0.993053 -4.078975
      ESP Fit Center   75 is at   1.013689 -3.983674 -1.860719
      ESP Fit Center   76 is at   1.945832 -4.409369 -1.860719
      ESP Fit Center   77 is at   0.632781 -4.001785 -2.910719
      ESP Fit Center   78 is at   1.459983 -4.572761 -2.910719
      ESP Fit Center   79 is at   2.457780 -4.693916 -2.910719
      ESP Fit Center   80 is at   2.960149 -0.954922 -3.960719
      ESP Fit Center   81 is at   1.945832 -0.809085 -3.960719
      ESP Fit Center   82 is at   2.729653 -1.699901 -4.729373
      ESP Fit Center   83 is at   1.679653 -1.699901 -4.729373
      ESP Fit Center   84 is at   3.216173 -4.371008 -1.314600
      ESP Fit Center   85 is at   4.230491 -4.225171 -1.314600
      ESP Fit Center   86 is at   3.728122 -4.655554 -2.364600
      ESP Fit Center   87 is at   5.004943 -1.587627 -3.414600
      ESP Fit Center   88 is at   4.230491 -0.916560 -3.414600
      ESP Fit Center   89 is at   3.216173 -0.770724 -3.414600
      ESP Fit Center   90 is at   3.999995 -1.661539 -4.183253
      ESP Fit Center   91 is at   3.444292 -3.720483 -0.099384
      ESP Fit Center   92 is at   4.458609 -0.266036 -2.199384
      ESP Fit Center   93 is at   3.444292 -0.120199 -2.199384
      ESP Fit Center   94 is at   1.438998 -2.629759  0.503156
      ESP Fit Center   95 is at   2.371141 -3.055454  0.503156
      ESP Fit Center   96 is at   1.885292 -3.218846 -0.546844
      ESP Fit Center   97 is at   3.385458  0.398993 -1.596844
      ESP Fit Center   98 is at   3.801230 -3.260696  0.567021
      ESP Fit Center   99 is at   4.733374 -3.686391  0.567021
      ESP Fit Center  100 is at   5.747691 -3.540554  0.567021
      ESP Fit Center  101 is at   6.522143 -2.869487  0.567021
      ESP Fit Center  102 is at   4.247525 -3.849783 -0.482979
      ESP Fit Center  103 is at   5.245322 -3.970938 -0.482979
      ESP Fit Center  104 is at   6.522143 -0.903011 -1.532979
      ESP Fit Center  105 is at   5.747691 -0.231944 -1.532979
      ESP Fit Center  106 is at   4.733374 -0.086107 -1.532979
      ESP Fit Center  107 is at   5.517195 -0.976922 -2.301632
      ESP Fit Center  108 is at   5.658683 -2.154450  2.468514
      ESP Fit Center  109 is at   4.874862 -3.045265  1.699861
      ESP Fit Center  110 is at   5.889179 -2.899429  1.699861
      ESP Fit Center  111 is at   6.326619  0.483143  0.649861
      ESP Fit Center  112 is at   6.663632 -0.261885 -0.400139
      ESP Fit Center  113 is at   5.889179  0.409182 -0.400139
      ESP Fit Center  114 is at   4.874862  0.555019 -0.400139
      ESP Fit Center  115 is at   2.862797 -1.940835  2.337845
      ESP Fit Center  116 is at   3.794940 -2.366530  2.337845
      ESP Fit Center  117 is at   3.309091 -2.529922  1.287845
      ESP Fit Center  118 is at   4.809257  1.087917  0.237845
      ESP Fit Center  119 is at   2.288253 -1.469155  2.506471
      ESP Fit Center  120 is at   2.554432 -2.359971  1.737817
      ESP Fit Center  121 is at   3.568749  1.094477 -0.362183
      ESP Fit Center  122 is at   3.624690 -0.707634  4.327319
      ESP Fit Center  123 is at   4.674690 -0.707634  4.327319
      ESP Fit Center  124 is at   4.905186  1.855998  3.558665
      ESP Fit Center  125 is at   2.958726 -1.172754  3.558665
      ESP Fit Center  126 is at   3.890869 -1.598449  3.558665
      ESP Fit Center  127 is at   4.905186 -1.452613  3.558665
      ESP Fit Center  128 is at   5.342626  1.929959  2.508665
      ESP Fit Center  129 is at   5.679639  1.184931  1.458665
      ESP Fit Center  130 is at   4.905186  1.855998  1.458665
      ESP Fit Center  131 is at   2.508191 -0.065613  4.786135
      ESP Fit Center  132 is at   3.558191 -0.065613  4.786135
      ESP Fit Center  133 is at   1.842226 -0.530732  4.017482
      ESP Fit Center  134 is at   2.774369 -0.956428  4.017482
      ESP Fit Center  135 is at   4.226127  2.571980  2.967482
      ESP Fit Center  136 is at   3.286318  2.928403  2.967482
      ESP Fit Center  137 is at   2.288521  2.807248  2.967482
      ESP Fit Center  138 is at   3.788687  2.498019  1.917482
      ESP Fit Center  139 is at   2.774369  2.643856  1.917482
      ESP Fit Center  140 is at   3.558191  1.753041  1.148828
      ESP Fit Center  141 is at   1.314063 -0.127151  4.118577
      ESP Fit Center  142 is at   0.648099 -0.592271  3.349924
      ESP Fit Center  143 is at   1.580242 -1.017967  3.349924
      ESP Fit Center  144 is at   2.092190  2.866864  2.299924
      ESP Fit Center  145 is at   2.594559  2.436480  1.249924
      ESP Fit Center  146 is at   1.580242  2.582317  1.249924
      ESP Fit Center  147 is at   2.465503  1.730802  0.080857
      ESP Fit Center  148 is at  -2.859672  0.988440 -0.127767
      ESP Fit Center  149 is at  -2.424937  2.117983 -1.095434
      ESP Fit Center  150 is at  -3.357080  1.692288 -1.095434
      ESP Fit Center  151 is at  -2.910785  2.281375 -2.145434
      ESP Fit Center  152 is at  -1.410619 -1.336464 -3.195434
      ESP Fit Center  153 is at  -1.116115  0.317841 -3.964087
      ESP Fit Center  154 is at  -1.641115 -0.591485 -3.964087
      ESP Fit Center  155 is at  -3.956256  1.085151 -0.894682
      ESP Fit Center  156 is at  -3.690077  1.975966 -1.663336
      ESP Fit Center  157 is at  -4.622220  1.550270 -1.663336
      ESP Fit Center  158 is at  -3.178129  2.260512 -2.713336
      ESP Fit Center  159 is at  -2.675760 -1.478481 -3.763336
      ESP Fit Center  160 is at  -2.381256  0.175824 -4.531989
      ESP Fit Center  161 is at  -3.956256 -0.733503 -4.531989
      ESP Fit Center  162 is at  -2.906256 -0.733503 -4.531989
      ESP Fit Center  163 is at  -4.766880  0.072777 -0.384440
      ESP Fit Center  164 is at  -5.432845  0.537897 -1.153094
      ESP Fit Center  165 is at  -5.986865 -0.324175 -1.153094
      ESP Fit Center  166 is at  -5.813753  0.556008 -2.203094
      ESP Fit Center  167 is at  -5.432845  0.537897 -3.253094
      ESP Fit Center  168 is at  -4.500701 -2.636691 -3.253094
      ESP Fit Center  169 is at  -3.486384 -2.490854 -3.253094
      ESP Fit Center  170 is at  -2.711932 -1.819787 -3.253094
      ESP Fit Center  171 is at  -3.716880 -1.745876 -4.021747
      ESP Fit Center  172 is at  -4.310337 -0.736101  0.659963
      ESP Fit Center  173 is at  -4.044158  0.154715 -0.108690
      ESP Fit Center  174 is at  -4.976302 -0.270981 -0.108690
      ESP Fit Center  175 is at  -3.029841 -3.299733 -2.208690
      ESP Fit Center  176 is at  -3.260337 -2.554754 -2.977344
      ESP Fit Center  177 is at  -3.022518 -0.486912  1.197384
      ESP Fit Center  178 is at  -3.688483 -0.021792  0.428731
      ESP Fit Center  179 is at  -1.742023 -3.050544 -1.671269
      ESP Fit Center  180 is at  -1.972518 -2.305566 -2.439922
      ESP Fit Center  181 is at  -5.060107 -1.819609  1.279336
      ESP Fit Center  182 is at  -5.726072 -1.354489  0.510683
      ESP Fit Center  183 is at  -6.280093 -2.216562  0.510683
      ESP Fit Center  184 is at  -6.280093 -3.241310  0.510683
      ESP Fit Center  185 is at  -6.106980 -1.336378 -0.539317
      ESP Fit Center  186 is at  -4.793929 -4.529078 -1.589317
      ESP Fit Center  187 is at  -3.779611 -4.383241 -1.589317
      ESP Fit Center  188 is at  -3.005159 -3.712174 -1.589317
      ESP Fit Center  189 is at  -4.010107 -3.638263 -2.357971
      ESP Fit Center  190 is at  -4.550843 -2.562499  2.247352
      ESP Fit Center  191 is at  -5.075843 -3.471826  2.247352
      ESP Fit Center  192 is at  -4.284664 -1.671684  1.478699
      ESP Fit Center  193 is at  -5.216808 -2.097379  1.478699
      ESP Fit Center  194 is at  -5.770828 -2.959452  1.478699
      ESP Fit Center  195 is at  -5.216808 -4.846272 -0.621301
      ESP Fit Center  196 is at  -4.284664 -5.271968 -0.621301
      ESP Fit Center  197 is at  -3.270347 -5.126131 -0.621301
      ESP Fit Center  198 is at  -3.500843 -4.381152 -1.389954
      ESP Fit Center  199 is at  -3.223117 -2.302165  2.799062
      ESP Fit Center  200 is at  -3.889082 -1.837045  2.030409
      ESP Fit Center  201 is at  -1.942621 -4.865797 -0.069591
      ESP Fit Center  202 is at  -1.168168 -4.194730 -0.069591
      ESP Fit Center  203 is at  -2.173117 -4.120818 -0.838245
      ESP Fit Center  204 is at  -3.148724 -0.788260  1.465042
      ESP Fit Center  205 is at  -1.202264 -3.817012 -0.634958
      ESP Fit Center  206 is at  -1.432760 -3.072034 -1.403611
      ESP Fit Center  207 is at  -2.138921 -3.930630  4.100748
      ESP Fit Center  208 is at  -2.663921 -3.021303  3.819401
      ESP Fit Center  209 is at  -3.188921 -3.930630  3.819401
      ESP Fit Center  210 is at  -2.397742 -2.130488  3.050748
      ESP Fit Center  211 is at  -3.329886 -2.556183  3.050748
      ESP Fit Center  212 is at  -3.883906 -3.418256  3.050748
      ESP Fit Center  213 is at  -2.397742 -5.730772  0.950748
      ESP Fit Center  214 is at  -1.383425 -5.584935  0.950748
      ESP Fit Center  215 is at  -1.613921 -4.839956  0.182095
      ESP Fit Center  216 is at  -0.332642 -2.711863  4.256493
      ESP Fit Center  217 is at  -1.382642 -2.711863  4.256493
      ESP Fit Center  218 is at  -1.907642 -3.621190  4.256493
      ESP Fit Center  219 is at  -2.048607 -2.246744  3.487839
      ESP Fit Center  220 is at  -0.604515 -5.705879  2.437839
      ESP Fit Center  221 is at  -0.102146 -5.275495  1.387839
      ESP Fit Center  222 is at   0.672307 -4.604428  1.387839
      ESP Fit Center  223 is at  -0.332642 -4.530517  0.619186
      ESP Fit Center  224 is at  -0.715838 -1.577887  3.662978
      ESP Fit Center  225 is at  -0.449659 -0.687072  2.894324
      ESP Fit Center  226 is at   0.564658 -4.141519  0.794324
      ESP Fit Center  227 is at   1.339111 -3.470452  0.794324
      ESP Fit Center  228 is at   0.334162 -3.396541  0.025671
      ESP Fit Center  229 is at   0.005251 -3.428907 -0.186882
      ESP Fit Center  230 is at   2.026005  2.674593  0.034877
      ESP Fit Center  231 is at   3.069738  1.864238 -1.051034
      ESP Fit Center  232 is at   2.781033  2.847476 -1.051034
      ESP Fit Center  233 is at   2.781033  0.881000 -1.051034
      ESP Fit Center  234 is at   3.351084  1.864238 -2.101034
      ESP Fit Center  235 is at  -0.493901  2.376612 -3.151034
      ESP Fit Center  236 is at   0.060120  0.489791 -3.151034
      ESP Fit Center  237 is at   0.201084  1.864238 -3.919688
      ESP Fit Center  238 is at   0.726084  0.954911 -3.919688
      ESP Fit Center  239 is at   2.511615  3.101918 -0.888504
      ESP Fit Center  240 is at   3.280268  3.101918 -1.657157
[...]
 1612 Fit       0.178893
 1613 Fit       0.184125
 1614 Fit       0.183043
 1615 Fit       0.177757
 1616 Fit       0.180939
 1617 Fit       0.180206
 1618 Fit       0.178794
 1619 Fit       0.181567
 1620 Fit       0.179818
 1621 Fit       0.183834
 1622 Fit       0.179863
 1623 Fit       0.160022
 1624 Fit       0.156665
 1625 Fit       0.170559
 1626 Fit       0.156353
 1627 Fit       0.153648
 1628 Fit       0.157568
 1629 Fit       0.176207
 1630 Fit       0.164767
 1631 Fit       0.154985
 1632 Fit       0.153689
 1633 Fit       0.157218
 1634 Fit       0.160722
 1635 Fit       0.164820
 1636 Fit       0.162045
 1637 Fit       0.156257
 1638 Fit       0.162290
 1639 Fit       0.154762
 1640 Fit       0.153042
 1641 Fit       0.156592
 1642 Fit       0.164861
 1643 Fit       0.154209
 1644 Fit       0.151036
 1645 Fit       0.152853
 1646 Fit       0.157099
 1647 Fit       0.154101
 1648 Fit       0.154119
 1649 Fit       0.161916
 1650 Fit       0.150233
 1651 Fit       0.153503
 1652 Fit       0.157384
 1653 Fit       0.150173
 1654 Fit       0.147559
 1655 Fit       0.148803
 1656 Fit       0.153179
 1657 Fit       0.153209
 1658 Fit       0.149040
 1659 Fit       0.149577
 1660 Fit       0.156466
 1661 Fit       0.153672
 1662 Fit       0.156150
 1663 Fit       0.148434
 1664 Fit       0.146935
 1665 Fit       0.149512
 1666 Fit       0.158970
 1667 Fit       0.155464
 1668 Fit       0.149826
 1669 Fit       0.146794
 1670 Fit       0.147617
 1671 Fit       0.153104
 1672 Fit       0.156090
 1673 Fit       0.150372
 1674 Fit       0.158985
 1675 Fit       0.154166
 1676 Fit       0.151629
 1677 Fit       0.157748
 1678 Fit       0.156845
 1679 Fit       0.152657
 1680 Fit       0.150294
 1681 Fit       0.152452
 1682 Fit       0.162707
 1683 Fit       0.157996
 1684 Fit       0.153192
 1685 Fit       0.153655
 1686 Fit       0.163309
 1687 Fit       0.155857
 1688 Fit       0.161921
 1689 Fit       0.158896
 1690 Fit       0.155266
 1691 Fit       0.153415
 1692 Fit       0.158521
 1693 Fit       0.163653
 1694 Fit       0.159399
 1695 Fit       0.153930
 1696 Fit       0.155483
 1697 Fit       0.162712
 1698 Fit       0.173219
 1699 Fit       0.157137
 1700 Fit       0.158854
 1701 Fit       0.167520
 1702 Fit       0.179997
 1703 Fit       0.182882
 1704 Fit       0.180551
 1705 Fit       0.182290
 1706 Fit       0.166664
 1707 Fit       0.170519
 1708 Fit       0.162586
 1709 Fit       0.167375
 1710 Fit       0.178891
 1711 Fit       0.179352
 1712 Fit       0.169830
 1713 Fit       0.170173
 1714 Fit       0.164092
 1715 Fit       0.160411
 1716 Fit       0.153830
 1717 Fit       0.158411
 1718 Fit       0.150700
 1719 Fit       0.148168
 1720 Fit       0.156308
 1721 Fit       0.149701
 1722 Fit       0.147627
 1723 Fit       0.169476
 1724 Fit       0.152943
 1725 Fit       0.156764
 1726 Fit       0.163014
 1727 Fit       0.167125
 1728 Fit       0.167950
 1729 Fit       0.152261
 1730 Fit       0.156650
 1731 Fit       0.158807
 1732 Fit       0.151704
 1733 Fit       0.150780
 1734 Fit       0.149681
 1735 Fit       0.146418
 1736 Fit       0.148259
 1737 Fit       0.146526
 1738 Fit       0.153020
 1739 Fit       0.154842
 1740 Fit       0.162893
 1741 Fit       0.150279
 1742 Fit       0.154627
 1743 Fit       0.150740
 1744 Fit       0.152576
 1745 Fit       0.154042
 1746 Fit       0.168052
 1747 Fit       0.157846
 1748 Fit       0.169311
 1749 Fit       0.173680
 1750 Fit       0.171306
 1751 Fit       0.159102
 1752 Fit       0.147790
 1753 Fit       0.142970
 1754 Fit       0.144136
 1755 Fit       0.152202
 1756 Fit       0.145388
 1757 Fit       0.142996
 1758 Fit       0.145813
 1759 Fit       0.150825
 1760 Fit       0.145289
 1761 Fit       0.146797
 1762 Fit       0.154293
 1763 Fit       0.149842
 1764 Fit       0.154849
 1765 Fit       0.152198
 1766 Fit       0.147110
 1767 Fit       0.161403
 1768 Fit       0.148871
 1769 Fit       0.143534
 1770 Fit       0.145586
 1771 Fit       0.150501
 1772 Fit       0.145451
 1773 Fit       0.146190
 1774 Fit       0.153160
 1775 Fit       0.161938
 1776 Fit       0.170650
 1777 Fit       0.163109
 1778 Fit       0.149086
 1779 Fit       0.152191
 1780 Fit       0.148222
 1781 Fit       0.167512
 1782 Fit       0.156660
 1783 Fit       0.151507
 1784 Fit       0.151468
 1785 Fit       0.150111
 1786 Fit       0.149239
 1787 Fit       0.150183
 1788 Fit       0.152811
 1789 Fit       0.156167
 1790 Fit       0.154312
 1791 Fit       0.151035
 1792 Fit       0.169782
 1793 Fit       0.167380
 1794 Fit       0.161683
 1795 Fit       0.155442
 1796 Fit       0.171920
 1797 Fit       0.163097
 1798 Fit       0.152190
 1799 Fit       0.151357
 1800 Fit       0.156351
 1801 Fit       0.166204
 1802 Fit       0.152750
 1803 Fit       0.158645
 1804 Fit       0.160016
 1805 Fit       0.168301
 1806 Fit       0.171781
 1807 Fit       0.179862
 1808 Fit       0.176129
 1809 Fit       0.173262
 1810 Fit       0.169351
 1811 Fit       0.172222
 1812 Fit       0.174275
 1813 Fit       0.176401
 1814 Fit       0.174163
 1815 Fit       0.181059
 1816 Fit       0.174184
 1817 Fit       0.170052
 1818 Fit       0.170312
 1819 Fit       0.164769
 1820 Fit       0.170706
 1821 Fit       0.159936
 1822 Fit       0.155193
 1823 Fit       0.161460
 1824 Fit       0.154154
 1825 Fit       0.152068
 1826 Fit       0.170158
 1827 Fit       0.169283
 1828 Fit       0.152724
 1829 Fit       0.155639
 1830 Fit       0.163257
 1831 Fit       0.156947
 1832 Fit       0.148859
 1833 Fit       0.151798
 1834 Fit       0.169906
 1835 Fit       0.159557
 1836 Fit       0.156108
 1837 Fit       0.151418
 1838 Fit       0.152730
 1839 Fit       0.151767
 1840 Fit       0.148671
 1841 Fit       0.152321
 1842 Fit       0.155942
 1843 Fit       0.166034
 1844 Fit       0.148270
 1845 Fit       0.152492
 1846 Fit       0.150691
 1847 Fit       0.147896
 1848 Fit       0.150820
 1849 Fit       0.165443
 1850 Fit       0.164312
 1851 Fit       0.157582
 1852 Fit       0.170454
 1853 Fit       0.159410
 1854 Fit       0.173018
 1855 Fit       0.172057
 1856 Fit       0.167705
 1857 Fit       0.153046
 1858 Fit       0.156099
 1859 Fit       0.147593
 1860 Fit       0.144132
 1861 Fit       0.145697
 1862 Fit       0.155683
 1863 Fit       0.149077
 1864 Fit       0.156592
 1865 Fit       0.142753
 1866 Fit       0.146258
 1867 Fit       0.155947
 1868 Fit       0.144881
 1869 Fit       0.149386
 1870 Fit       0.152967
 1871 Fit       0.154337
 1872 Fit       0.154497
 1873 Fit       0.147570
 1874 Fit       0.148491
 1875 Fit       0.144854
 1876 Fit       0.146463
 1877 Fit       0.152144
 1878 Fit       0.143669
 1879 Fit       0.142295
 1880 Fit       0.145884
 1881 Fit       0.154453
 1882 Fit       0.148513
 1883 Fit       0.160848
 1884 Fit       0.169689
 1885 Fit       0.159901
 1886 Fit       0.154569
 1887 Fit       0.161577
 1888 Fit       0.159619
 1889 Fit       0.174762
 1890 Fit       0.155265
 1891 Fit       0.150237
 1892 Fit       0.150805
 1893 Fit       0.159347
 1894 Fit       0.152262
 1895 Fit       0.175196
 1896 Fit       0.161333
 1897 Fit       0.156021
 1898 Fit       0.153700
 1899 Fit       0.146956
 1900 Fit       0.148514
 1901 Fit       0.149598
 1902 Fit       0.148730
 1903 Fit       0.155168
 1904 Fit       0.164227
 1905 Fit       0.152715
 1906 Fit       0.158857
 1907 Fit       0.155791
 1908 Fit       0.151593
 1909 Fit       0.168961
 1910 Fit       0.168826
 1911 Fit       0.162712
 1912 Fit       0.150257
 1913 Fit       0.149275
 1914 Fit       0.149188
 1915 Fit       0.154361
 1916 Fit       0.164608
 1917 Fit       0.150749
 1918 Fit       0.154987
 1919 Fit       0.158270
 1920 Fit       0.170466
 1921 Fit       0.172723
 1922 Fit       0.171547
 1923 Fit       0.166371
 1924 Fit       0.167648
 1925 Fit       0.171310
 1926 Fit       0.172675
 1927 Fit       0.167999
 1928 Fit       0.169899
 1929 Fit       0.168794
 1930 Fit       0.181909
 1931 Fit       0.172149
 1932 Fit       0.172577
 1933 Fit       0.161348
 1934 Fit       0.155542
 1935 Fit       0.156944
 1936 Fit       0.151597
 1937 Fit       0.155758
 1938 Fit       0.151074
 1939 Fit       0.151954
 1940 Fit       0.165480
 1941 Fit       0.156751
 1942 Fit       0.163221
 1943 Fit       0.168490
 1944 Fit       0.152896
 1945 Fit       0.155274
 1946 Fit       0.159906
 1947 Fit       0.158585
 1948 Fit       0.152635
 1949 Fit       0.152937
 1950 Fit       0.150041
 1951 Fit       0.149480
 1952 Fit       0.151116
 1953 Fit       0.154527
 1954 Fit       0.158115
 1955 Fit       0.168717
 1956 Fit       0.151265
 1957 Fit       0.153762
 1958 Fit       0.161711
 1959 Fit       0.155594
 1960 Fit       0.152313
 1961 Fit       0.170742
 1962 Fit       0.166604
 1963 Fit       0.158364
 1964 Fit       0.174984
 1965 Fit       0.177656
 1966 Fit       0.157552
 1967 Fit       0.148305
 1968 Fit       0.144620
 1969 Fit       0.146053
 1970 Fit       0.151731
 1971 Fit       0.147218
 1972 Fit       0.146582
 1973 Fit       0.144927
 1974 Fit       0.147667
 1975 Fit       0.156964
 1976 Fit       0.149471
 1977 Fit       0.150692
 1978 Fit       0.160321
 1979 Fit       0.155599
 1980 Fit       0.159132
 1981 Fit       0.149317
 1982 Fit       0.147389
 1983 Fit       0.159381
 1984 Fit       0.148691
 1985 Fit       0.144608
 1986 Fit       0.154164
 1987 Fit       0.145219
 1988 Fit       0.148410
 1989 Fit       0.144832
 1990 Fit       0.147148
 1991 Fit       0.155703
 1992 Fit       0.177929
 1993 Fit       0.162819
 1994 Fit       0.157564
 1995 Fit       0.164842
 1996 Fit       0.172588
 1997 Fit       0.175231
 1998 Fit       0.151769
 1999 Fit       0.161675
 2000 Fit       0.153778
 2001 Fit       0.151245
 2002 Fit       0.172601
 2003 Fit       0.160053
 2004 Fit       0.154903
 2005 Fit       0.149630
 2006 Fit       0.150555
 2007 Fit       0.149446
 2008 Fit       0.153375
 2009 Fit       0.154615
 2010 Fit       0.153072
 2011 Fit       0.157669
 2012 Fit       0.156449
 2013 Fit       0.153365
 2014 Fit       0.164185
 2015 Fit       0.157954
 2016 Fit       0.169212
 2017 Fit       0.167922
 2018 Fit       0.155669
 2019 Fit       0.151026
 2020 Fit       0.153558
 2021 Fit       0.160874
 2022 Fit       0.151790
 2023 Fit       0.154879
 2024 Fit       0.163443
 2025 Fit       0.156436
 2026 Fit       0.160429
 2027 Fit       0.171802
 2028 Fit       0.180977
 2029 Fit       0.173764
 2030 Fit       0.173248
 2031 Fit       0.167465
 2032 Fit       0.176516
 2033 Fit       0.177007
 2034 Fit       0.170717
 2035 Fit       0.172303
 2036 Fit       0.168435
 2037 Fit       0.174298
 2038 Fit       0.170340
 2039 Fit       0.169592
 2040 Fit       0.162935
 2041 Fit       0.152561
 2042 Fit       0.147072
 2043 Fit       0.146694
 2044 Fit       0.165896
 2045 Fit       0.157272
 2046 Fit       0.148963
 2047 Fit       0.144487
 2048 Fit       0.144992
 2049 Fit       0.150223
 2050 Fit       0.147831
 2051 Fit       0.151367
 2052 Fit       0.154588
 2053 Fit       0.151995
 2054 Fit       0.145938
 2055 Fit       0.144546
 2056 Fit       0.147292
 2057 Fit       0.149085
 2058 Fit       0.151082
 2059 Fit       0.155806
 2060 Fit       0.144487
 2061 Fit       0.143452
 2062 Fit       0.146148
 2063 Fit       0.145001
 2064 Fit       0.149318
 2065 Fit       0.150363
 2066 Fit       0.143366
 2067 Fit       0.142465
 2068 Fit       0.145532
 2069 Fit       0.146178
 2070 Fit       0.144737
 2071 Fit       0.141099
 2072 Fit       0.141265
 2073 Fit       0.140674
 2074 Fit       0.143992
 2075 Fit       0.147462
 2076 Fit       0.141610
 2077 Fit       0.139641
 2078 Fit       0.142831
 2079 Fit       0.145720
 2080 Fit       0.151191
 2081 Fit       0.144073
 2082 Fit       0.151861
 2083 Fit       0.152368
 2084 Fit       0.150510
 2085 Fit       0.143138
 2086 Fit       0.150311
 2087 Fit       0.144249
 2088 Fit       0.141710
 2089 Fit       0.139810
 2090 Fit       0.142883
 2091 Fit       0.150250
 2092 Fit       0.142437
 2093 Fit       0.139945
 2094 Fit       0.141737
 2095 Fit       0.142533
 2096 Fit       0.144415
 2097 Fit       0.144449
 2098 Fit       0.149729
 2099 Fit       0.146873
 2100 Fit       0.142637
 2101 Fit       0.143400
 2102 Fit       0.149489
 2103 Fit       0.148865
 2104 Fit       0.144992
 2105 Fit       0.145809
 2106 Fit       0.144014
 2107 Fit       0.146078
 2108 Fit       0.155065
 2109 Fit       0.150317
 2110 Fit       0.154634
 2111 Fit       0.149191
 2112 Fit       0.148577
 2113 Fit       0.147481
 2114 Fit       0.146477
 2115 Fit       0.151029
 2116 Fit       0.155613
 2117 Fit       0.153674
 2118 Fit       0.150158
 2119 Fit       0.153139
 2120 Fit       0.147808
 2121 Fit       0.147180
 2122 Fit       0.151774
 2123 Fit       0.159940
 2124 Fit       0.167684
 2125 Fit       0.149708
 2126 Fit       0.151507
 2127 Fit       0.158602
 2128 Fit       0.170168
 2129 Fit       0.173684
 2130 Fit       0.176033
 2131 Fit       0.174659
 2132 Fit       0.177971
 2133 Fit       0.174374
 2134 Fit       0.176410
 2135 Fit       0.173229
 2136 Fit       0.164696
 2137 Fit       0.154761
 2138 Fit       0.149340
 2139 Fit       0.148986
 2140 Fit       0.160268
 2141 Fit       0.151677
 2142 Fit       0.146766
 2143 Fit       0.146791
 2144 Fit       0.151598
 2145 Fit       0.156936
 2146 Fit       0.153334
 2147 Fit       0.147286
 2148 Fit       0.146485
 2149 Fit       0.149488
 2150 Fit       0.148977
 2151 Fit       0.147502
 2152 Fit       0.148519
 2153 Fit       0.144743
 2154 Fit       0.143678
 2155 Fit       0.146869
 2156 Fit       0.153214
 2157 Fit       0.151210
 2158 Fit       0.143798
 2159 Fit       0.142816
 2160 Fit       0.145687
 2161 Fit       0.145442
 2162 Fit       0.146144
 2163 Fit       0.145830
 2164 Fit       0.141354
 2165 Fit       0.141227
 2166 Fit       0.145756
 2167 Fit       0.149250
 2168 Fit       0.142029
 2169 Fit       0.139574
 2170 Fit       0.140883
 2171 Fit       0.152284
 2172 Fit       0.143581
 2173 Fit       0.141700
 2174 Fit       0.148780
 2175 Fit       0.149685
 2176 Fit       0.153292
 2177 Fit       0.142395
 2178 Fit       0.143273
 2179 Fit       0.150870
 2180 Fit       0.144157
 2181 Fit       0.140346
 2182 Fit       0.139841
 2183 Fit       0.143506
 2184 Fit       0.152864
 2185 Fit       0.143528
 2186 Fit       0.140337
 2187 Fit       0.141625
 2188 Fit       0.147416
 2189 Fit       0.148380
 2190 Fit       0.145698
 2191 Fit       0.152379
 2192 Fit       0.147465
 2193 Fit       0.143469
 2194 Fit       0.143463
 2195 Fit       0.149898
 2196 Fit       0.151740
 2197 Fit       0.145370
 2198 Fit       0.143071
 2199 Fit       0.145559
 2200 Fit       0.151802
 2201 Fit       0.146427
 2202 Fit       0.147054
 2203 Fit       0.149842
 2204 Fit       0.152058
 2205 Fit       0.157845
 2206 Fit       0.147447
 2207 Fit       0.146383
 2208 Fit       0.157730
 2209 Fit       0.152962
 2210 Fit       0.146397
 2211 Fit       0.145081
 2212 Fit       0.149170
 2213 Fit       0.165899
 2214 Fit       0.150684
 2215 Fit       0.146219
 2216 Fit       0.147754
 2217 Fit       0.154313
 2218 Fit       0.151426
 2219 Fit       0.172836
 2220 Fit       0.175753
 2221 Fit       0.171461
 2222 Fit       0.174165
 2223 Fit       0.173567
 2224 Fit       0.172676
 2225 Fit       0.174598
 2226 Fit       0.173477
 2227 Fit       0.177680
 2228 Fit       0.173883
 2229 Fit       0.152585
 2230 Fit       0.149086
 2231 Fit       0.151548
 2232 Fit       0.161320
 2233 Fit       0.149533
 2234 Fit       0.146782
 2235 Fit       0.149349
 2236 Fit       0.155204
 2237 Fit       0.166341
 2238 Fit       0.156954
 2239 Fit       0.148654
 2240 Fit       0.147241
 2241 Fit       0.150524
 2242 Fit       0.154565
 2243 Fit       0.157946
 2244 Fit       0.155011
 2245 Fit       0.150187
 2246 Fit       0.148953
 2247 Fit       0.152742
 2248 Fit       0.148836
 2249 Fit       0.145245
 2250 Fit       0.146087
 2251 Fit       0.150419
 2252 Fit       0.156306
 2253 Fit       0.148415
 2254 Fit       0.144520
 2255 Fit       0.145522
 2256 Fit       0.149347
 2257 Fit       0.148418
 2258 Fit       0.148404
 2259 Fit       0.144161
 2260 Fit       0.141901
 2261 Fit       0.143442
 2262 Fit       0.148819
 2263 Fit       0.156229
 2264 Fit       0.146553
 2265 Fit       0.141903
 2266 Fit       0.141083
 2267 Fit       0.143293
 2268 Fit       0.149227
 2269 Fit       0.144305
 2270 Fit       0.144710
 2271 Fit       0.152618
 2272 Fit       0.149995
 2273 Fit       0.152276
 2274 Fit       0.143262
 2275 Fit       0.141954
 2276 Fit       0.145273
 2277 Fit       0.142268
 2278 Fit       0.140038
 2279 Fit       0.140926
 2280 Fit       0.145878
 2281 Fit       0.149039
 2282 Fit       0.143291
 2283 Fit       0.141685
 2284 Fit       0.144234
 2285 Fit       0.153081
 2286 Fit       0.148403
 2287 Fit       0.145840
 2288 Fit       0.151619
 2289 Fit       0.149038
 2290 Fit       0.145146
 2291 Fit       0.143581
 2292 Fit       0.146413
 2293 Fit       0.154844
 2294 Fit       0.149172
 2295 Fit       0.145376
 2296 Fit       0.145277
 2297 Fit       0.149917
 2298 Fit       0.151646
 2299 Fit       0.149119
 2300 Fit       0.149791
 2301 Fit       0.152277
 2302 Fit       0.148516
 2303 Fit       0.147129
 2304 Fit       0.151746
 2305 Fit       0.156617
 2306 Fit       0.150852
 2307 Fit       0.146969
 2308 Fit       0.148587
 2309 Fit       0.154887
 2310 Fit       0.163527
 2311 Fit       0.150786
 2312 Fit       0.149524
 2313 Fit       0.153889
 2314 Fit       0.163152
 2315 Fit       0.173483
 2316 Fit       0.176391
 2317 Fit       0.174784
 2318 Fit       0.175531
 -----------------------------------------------------------------
 Leave Link  602 at Mon Nov  2 22:12:33 2015, MaxMem=  786432000 cpu:      14.1

 Test job not archived.
 1\1\GINC-C5A-S18\SP\RB3LYP\SDD\C36H24N6Os1(2+)\ROOT\02-Nov-2015\0\\#N 
 B3LYP/SDD Integral=(Grid=UltraFine) Pop(MK,ReadRadii) SCF=XQC IOp(6/33
 =2)\\CLR\\2,1\Os,0,25.839,11.38,7.526\N,0,26.789,12.578,6.146\C,0,28.,
 13.155,6.239\C,0,28.539,13.923,5.169\C,0,27.806,14.052,4.003\C,0,26.52
 2,13.509,3.911\C,0,26.037,12.777,5.\C,0,25.668,13.652,2.746\C,0,24.479
 ,13.104,2.727\C,0,23.959,12.36,3.827\C,0,24.737,12.186,4.951\C,0,22.68
 ,11.687,3.855\C,0,22.345,10.964,4.966\C,0,23.188,10.858,6.04\N,0,24.41
 6,11.469,6.047\N,0,27.238,11.428,9.046\C,0,28.21,10.615,9.317\C,0,28.9
 72,10.588,10.484\C,0,28.673,11.542,11.455\C,0,27.64,12.46,11.246\C,0,2
 6.896,12.381,10.042\C,0,27.23,13.498,12.181\C,0,26.259,14.351,11.902\C
 ,0,25.494,14.266,10.66\C,0,25.855,13.265,9.746\C,0,24.462,15.104,10.33
 8\C,0,23.813,14.958,9.119\C,0,24.206,13.863,8.265\N,0,25.2,13.034,8.59
 4\N,0,26.584,9.601,6.752\C,0,27.526,9.437,5.822\C,0,27.992,8.191,5.405
 \C,0,27.431,7.053,5.967\C,0,26.472,7.213,6.913\C,0,26.052,8.493,7.342\
 C,0,25.833,6.036,7.553\C,0,24.912,6.232,8.441\C,0,24.424,7.59,8.929\C,
 0,25.07,8.699,8.314\C,0,23.477,7.827,9.816\C,0,23.153,9.161,10.185\C,0
 ,23.831,10.286,9.609\N,0,24.762,9.992,8.656\H,0,28.525,13.037,7.035\H,
 0,29.401,14.344,5.247\H,0,28.189,14.519,3.255\H,0,25.988,14.121,1.98\H
 ,0,23.94,13.213,1.944\H,0,22.091,11.73,3.1\H,0,21.487,10.519,4.996\H,0
 ,22.919,10.36,6.809\H,0,28.419,9.961,8.645\H,0,29.666,9.945,10.649\H,0
 ,29.193,11.603,12.258\H,0,27.722,13.579,12.998\H,0,26.052,15.029,12.54
 4\H,0,24.212,15.81,10.935\H,0,23.128,15.571,8.86\H,0,23.745,13.707,7.4
 41\H,0,27.869,10.216,5.378\H,0,28.692,8.128,4.758\H,0,27.733,6.184,5.6
 88\H,0,26.089,5.148,7.286\H,0,24.529,5.435,8.824\H,0,22.997,7.092,10.2
 31\H,0,22.47,9.308,10.839\H,0,23.659,11.188,9.861\\Version=AM64L-G03Re
 vE.01\State=1-A\HF=-1804.6329315\RMSD=5.678e-05\Thermal=0.\Dipole=-0.0
 575446,-0.2261501,0.0256071\PG=C01 [X(C36H24N6Os1)]\\@


 THE CAUTIOUS SELDOM ERR...CONFUCIUS                   

 File lengths (MBytes):  RWF=    155 Int=      0 D2E=      0 Chk=     20 Scr=      1
 Normal termination of Gaussian 03 at Mon Nov  2 22:12:41 2015.
