 Entering Gaussian System, Link 0=g03
 Initial command:
 /apps/gaussian/g03/amd64/g03/l1.exe /scratch/lfs/pengfei/pymsmt/testcases2/Os2/fc/Gau-33020.inp -scrdir=/scratch/lfs/pengfei/pymsmt/testcases2/Os2/fc/
 Entering Link 1 = /apps/gaussian/g03/amd64/g03/l1.exe PID=     33107.
  
 Copyright (c) 1988,1990,1992,1993,1995,1998,2003,2004,2007, Gaussian, Inc.
                  All Rights Reserved.
  
 This is the Gaussian(R) 03 program.  It is based on the
 the Gaussian(R) 98 system (copyright 1998, Gaussian, Inc.),
 the Gaussian(R) 94 system (copyright 1995, Gaussian, Inc.),
 the Gaussian 92(TM) system (copyright 1992, Gaussian, Inc.),
 the Gaussian 90(TM) system (copyright 1990, Gaussian, Inc.),
 the Gaussian 88(TM) system (copyright 1988, Gaussian, Inc.),
 the Gaussian 86(TM) system (copyright 1986, Carnegie Mellon
 University), and the Gaussian 82(TM) system (copyright 1983,
 Carnegie Mellon University). Gaussian is a federally registered
 trademark of Gaussian, Inc.
  
 This software contains proprietary and confidential information,
 including trade secrets, belonging to Gaussian, Inc.
  
 This software is provided under written license and may be
 used, copied, transmitted, or stored only in accord with that
 written license.
  
 The following legend is applicable only to US Government
 contracts under FAR:
  
                    RESTRICTED RIGHTS LEGEND
  
 Use, reproduction and disclosure by the US Government is
 subject to restrictions as set forth in subparagraphs (a)
 and (c) of the Commercial Computer Software - Restricted
 Rights clause in FAR 52.227-19.
  
 Gaussian, Inc.
 340 Quinnipiac St., Bldg. 40, Wallingford CT 06492
  
  
 ---------------------------------------------------------------
 Warning -- This program may not be used in any manner that
 competes with the business of Gaussian, Inc. or will provide
 assistance to any competitor of Gaussian, Inc.  The licensee
 of this program is prohibited from giving any competitor of
 Gaussian, Inc. access to this program.  By using this program,
 the user acknowledges that Gaussian, Inc. is engaged in the
 business of creating and licensing software in the field of
 computational chemistry and represents and warrants to the
 licensee that it is not a competitor of Gaussian, Inc. and that
 it will not use this program in any manner prohibited above.
 ---------------------------------------------------------------
  

 Cite this work as:
 Gaussian 03, Revision E.01,
 M. J. Frisch, G. W. Trucks, H. B. Schlegel, G. E. Scuseria, 
 M. A. Robb, J. R. Cheeseman, J. A. Montgomery, Jr., T. Vreven, 
 K. N. Kudin, J. C. Burant, J. M. Millam, S. S. Iyengar, J. Tomasi, 
 V. Barone, B. Mennucci, M. Cossi, G. Scalmani, N. Rega, 
 G. A. Petersson, H. Nakatsuji, M. Hada, M. Ehara, K. Toyota, 
 R. Fukuda, J. Hasegawa, M. Ishida, T. Nakajima, Y. Honda, O. Kitao, 
 H. Nakai, M. Klene, X. Li, J. E. Knox, H. P. Hratchian, J. B. Cross, 
 V. Bakken, C. Adamo, J. Jaramillo, R. Gomperts, R. E. Stratmann, 
 O. Yazyev, A. J. Austin, R. Cammi, C. Pomelli, J. W. Ochterski, 
 P. Y. Ayala, K. Morokuma, G. A. Voth, P. Salvador, J. J. Dannenberg, 
 V. G. Zakrzewski, S. Dapprich, A. D. Daniels, M. C. Strain, 
 O. Farkas, D. K. Malick, A. D. Rabuck, K. Raghavachari, 
 J. B. Foresman, J. V. Ortiz, Q. Cui, A. G. Baboul, S. Clifford, 
 J. Cioslowski, B. B. Stefanov, G. Liu, A. Liashenko, P. Piskorz, 
 I. Komaromi, R. L. Martin, D. J. Fox, T. Keith, M. A. Al-Laham, 
 C. Y. Peng, A. Nanayakkara, M. Challacombe, P. M. W. Gill, 
 B. Johnson, W. Chen, M. W. Wong, C. Gonzalez, and J. A. Pople, 
 Gaussian, Inc., Wallingford CT, 2004.
 
 ******************************************
 Gaussian 03:  AM64L-G03RevE.01 11-Sep-2007
                 2-Nov-2015 
 ******************************************
 %Chk=FAJYAR01_small_opt.chk
 %Mem=6000MB
 %NProcShared=12
 Will use up to   12 processors via shared memory.
 ----------------------------------------------------------------------
 #N B3LYP/SDD Geom=PrintInputOrient Integral=(Grid=UltraFine) Opt SCF=X
 QC
 ----------------------------------------------------------------------
 1/14=-1,18=20,26=3,38=1/1,3;
 2/9=2110,17=6,18=5,40=1/2;
 3/5=17,6=7,11=2,16=1,25=1,30=1,74=-5,75=5/1,2,3;
 4//1;
 5/5=2,8=3,13=1,38=5/2,8;
 6/7=2,8=2,9=2,10=2,28=1/1;
 7//1,2,3,16;
 1/14=-1,18=20/3(3);
 2/9=2110/2;
 6/7=2,8=2,9=2,10=2,19=2,28=1/1;
 99//99;
 2/9=2110/2;
 3/5=17,6=7,11=2,16=1,25=1,30=1,74=-5,75=5/1,2,3;
 4/5=5,16=3/1;
 5/5=2,8=3,13=1,38=5/2,8;
 7//1,2,3,16;
 1/14=-1,18=20/3(-5);
 2/9=2110/2;
 6/7=2,8=2,9=2,10=2,19=2,28=1/1;
 99/9=1/99;
 ---
 CLR
 ---
 Symbolic Z-matrix:
 Charge =  2 Multiplicity = 1
 Os                    25.839    11.38     7.526 
 N                     26.789    12.578    6.146 
 C                     28.       13.155    6.239 
 C                     28.539    13.923    5.169 
 C                     27.806    14.052    4.003 
 C                     26.522    13.509    3.911 
 C                     26.037    12.777    5. 
 C                     25.668    13.652    2.746 
 C                     24.479    13.104    2.727 
 C                     23.959    12.36     3.827 
 C                     24.737    12.186    4.951 
 C                     22.68     11.687    3.855 
 C                     22.345    10.964    4.966 
 C                     23.188    10.858    6.04 
 N                     24.416    11.469    6.047 
 N                     27.238    11.428    9.046 
 C                     28.21     10.615    9.317 
 C                     28.972    10.588    10.484 
 C                     28.673    11.542    11.455 
 C                     27.64     12.46     11.246 
 C                     26.896    12.381    10.042 
 C                     27.23     13.498    12.181 
 C                     26.259    14.351    11.902 
 C                     25.494    14.266    10.66 
 C                     25.855    13.265    9.746 
 C                     24.462    15.104    10.338 
 C                     23.813    14.958    9.119 
 C                     24.206    13.863    8.265 
 N                     25.2      13.034    8.594 
 N                     26.584    9.601     6.752 
 C                     27.526    9.437     5.822 
 C                     27.992    8.191     5.405 
 C                     27.431    7.053     5.967 
 C                     26.472    7.213     6.913 
 C                     26.052    8.493     7.342 
 C                     25.833    6.036     7.553 
 C                     24.912    6.232     8.441 
 C                     24.424    7.59      8.929 
 C                     25.07     8.699     8.314 
 C                     23.477    7.827     9.816 
 C                     23.153    9.161     10.185 
 C                     23.831    10.286    9.609 
 N                     24.762    9.992     8.656 
 H                     28.525    13.037    7.035 
 H                     29.401    14.344    5.247 
 H                     28.189    14.519    3.255 
 H                     25.988    14.121    1.98 
 H                     23.94     13.213    1.944 
 H                     22.091    11.73     3.1 
 H                     21.487    10.519    4.996 
 H                     22.919    10.36     6.809 
 H                     28.419    9.961     8.645 
 H                     29.666    9.945     10.649 
 H                     29.193    11.603    12.258 
 H                     27.722    13.579    12.998 
 H                     26.052    15.029    12.544 
 H                     24.212    15.81     10.935 
 H                     23.128    15.571    8.86 
 H                     23.745    13.707    7.441 
 H                     27.869    10.216    5.378 
 H                     28.692    8.128     4.758 
 H                     27.733    6.184     5.688 
 H                     26.089    5.148     7.286 
 H                     24.529    5.435     8.824 
 H                     22.997    7.092     10.231 
 H                     22.47     9.308     10.839 
 H                     23.659    11.188    9.861 
 

 GradGradGradGradGradGradGradGradGradGradGradGradGradGradGradGradGradGrad
 Berny optimization.
 Initialization pass.
                           ----------------------------
                           !    Initial Parameters    !
                           ! (Angstroms and Degrees)  !
 --------------------------                            --------------------------
 ! Name  Definition              Value          Derivative Info.                !
 --------------------------------------------------------------------------------
 ! R1    R(1,2)                  2.0596         estimate D2E/DX2                !
 ! R2    R(1,15)                 2.0543         estimate D2E/DX2                !
 ! R3    R(1,16)                 2.0664         estimate D2E/DX2                !
 ! R4    R(1,29)                 2.0699         estimate D2E/DX2                !
 ! R5    R(1,30)                 2.0782         estimate D2E/DX2                !
 ! R6    R(1,43)                 2.0889         estimate D2E/DX2                !
 ! R7    R(2,3)                  1.3447         estimate D2E/DX2                !
 ! R8    R(2,7)                  1.3851         estimate D2E/DX2                !
 ! R9    R(3,4)                  1.4231         estimate D2E/DX2                !
 ! R10   R(3,44)                 0.9608         estimate D2E/DX2                !
 ! R11   R(4,5)                  1.3833         estimate D2E/DX2                !
 ! R12   R(4,45)                 0.9625         estimate D2E/DX2                !
 ! R13   R(5,6)                  1.3971         estimate D2E/DX2                !
 ! R14   R(5,46)                 0.9614         estimate D2E/DX2                !
 ! R15   R(6,7)                  1.3989         estimate D2E/DX2                !
 ! R16   R(6,8)                  1.4515         estimate D2E/DX2                !
 ! R17   R(7,11)                 1.4289         estimate D2E/DX2                !
 ! R18   R(8,9)                  1.3093         estimate D2E/DX2                !
 ! R19   R(8,47)                 0.9535         estimate D2E/DX2                !
 ! R20   R(9,10)                 1.4262         estimate D2E/DX2                !
 ! R21   R(9,48)                 0.9568         estimate D2E/DX2                !
 ! R22   R(10,11)                1.378          estimate D2E/DX2                !
 ! R23   R(10,12)                1.4455         estimate D2E/DX2                !
 ! R24   R(11,15)                1.3485         estimate D2E/DX2                !
 ! R25   R(12,13)                1.3672         estimate D2E/DX2                !
 ! R26   R(12,49)                0.9585         estimate D2E/DX2                !
 ! R27   R(13,14)                1.3694         estimate D2E/DX2                !
 ! R28   R(13,50)                0.967          estimate D2E/DX2                !
 ! R29   R(14,15)                1.3716         estimate D2E/DX2                !
 ! R30   R(14,51)                0.9548         estimate D2E/DX2                !
 ! R31   R(16,17)                1.2958         estimate D2E/DX2                !
 ! R32   R(16,21)                1.4203         estimate D2E/DX2                !
 ! R33   R(17,18)                1.394          estimate D2E/DX2                !
 ! R34   R(17,52)                0.9607         estimate D2E/DX2                !
 ! R35   R(18,19)                1.3937         estimate D2E/DX2                !
 ! R36   R(18,53)                0.9604         estimate D2E/DX2                !
 ! R37   R(19,20)                1.3977         estimate D2E/DX2                !
 ! R38   R(19,54)                0.9586         estimate D2E/DX2                !
 ! R39   R(20,21)                1.4175         estimate D2E/DX2                !
 ! R40   R(20,22)                1.4559         estimate D2E/DX2                !
 ! R41   R(21,25)                1.3974         estimate D2E/DX2                !
 ! R42   R(22,23)                1.3222         estimate D2E/DX2                !
 ! R43   R(22,55)                0.9571         estimate D2E/DX2                !
 ! R44   R(23,24)                1.4612         estimate D2E/DX2                !
 ! R45   R(23,56)                0.9564         estimate D2E/DX2                !
 ! R46   R(24,25)                1.4028         estimate D2E/DX2                !
 ! R47   R(24,26)                1.3678         estimate D2E/DX2                !
 ! R48   R(25,29)                1.3452         estimate D2E/DX2                !
 ! R49   R(26,27)                1.3887         estimate D2E/DX2                !
 ! R50   R(26,57)                0.9578         estimate D2E/DX2                !
 ! R51   R(27,28)                1.4432         estimate D2E/DX2                !
 ! R52   R(27,58)                0.955          estimate D2E/DX2                !
 ! R53   R(28,29)                1.3355         estimate D2E/DX2                !
 ! R54   R(28,59)                0.957          estimate D2E/DX2                !
 ! R55   R(30,31)                1.3339         estimate D2E/DX2                !
 ! R56   R(30,35)                1.3634         estimate D2E/DX2                !
 ! R57   R(31,32)                1.3941         estimate D2E/DX2                !
 ! R58   R(31,60)                0.96           estimate D2E/DX2                !
 ! R59   R(32,33)                1.3877         estimate D2E/DX2                !
 ! R60   R(32,61)                0.9553         estimate D2E/DX2                !
 ! R61   R(33,34)                1.3565         estimate D2E/DX2                !
 ! R62   R(33,62)                0.9614         estimate D2E/DX2                !
 ! R63   R(34,35)                1.4138         estimate D2E/DX2                !
 ! R64   R(34,36)                1.4843         estimate D2E/DX2                !
 ! R65   R(35,39)                1.397          estimate D2E/DX2                !
 ! R66   R(36,37)                1.2943         estimate D2E/DX2                !
 ! R67   R(36,63)                0.962          estimate D2E/DX2                !
 ! R68   R(37,38)                1.5233         estimate D2E/DX2                !
 ! R69   R(37,64)                0.9636         estimate D2E/DX2                !
 ! R70   R(38,39)                1.4232         estimate D2E/DX2                !
 ! R71   R(38,40)                1.319          estimate D2E/DX2                !
 ! R72   R(39,43)                1.3725         estimate D2E/DX2                !
 ! R73   R(40,41)                1.4215         estimate D2E/DX2                !
 ! R74   R(40,65)                0.971          estimate D2E/DX2                !
 ! R75   R(41,42)                1.4343         estimate D2E/DX2                !
 ! R76   R(41,66)                0.957          estimate D2E/DX2                !
 ! R77   R(42,43)                1.3643         estimate D2E/DX2                !
 ! R78   R(42,67)                0.9522         estimate D2E/DX2                !
 ! A1    A(2,1,15)              79.1594         estimate D2E/DX2                !
 ! A2    A(2,1,16)              99.6175         estimate D2E/DX2                !
 ! A3    A(2,1,29)              91.336          estimate D2E/DX2                !
 ! A4    A(2,1,30)              94.7624         estimate D2E/DX2                !
 ! A5    A(2,1,43)             170.6682         estimate D2E/DX2                !
 ! A6    A(15,1,29)             97.0657         estimate D2E/DX2                !
 ! A7    A(15,1,30)             90.9894         estimate D2E/DX2                !
 ! A8    A(15,1,43)             93.5034         estimate D2E/DX2                !
 ! A9    A(16,1,29)             79.1003         estimate D2E/DX2                !
 ! A10   A(16,1,30)             92.9314         estimate D2E/DX2                !
 ! A11   A(16,1,43)             88.0848         estimate D2E/DX2                !
 ! A12   A(29,1,30)            170.6942         estimate D2E/DX2                !
 ! A13   A(29,1,43)             95.3175         estimate D2E/DX2                !
 ! A14   A(30,1,43)             79.4844         estimate D2E/DX2                !
 ! A15   A(1,2,3)              128.2177         estimate D2E/DX2                !
 ! A16   A(1,2,7)              112.8            estimate D2E/DX2                !
 ! A17   A(3,2,7)              118.9823         estimate D2E/DX2                !
 ! A18   A(2,3,4)              121.3773         estimate D2E/DX2                !
 ! A19   A(2,3,44)             119.7818         estimate D2E/DX2                !
 ! A20   A(4,3,44)             118.8308         estimate D2E/DX2                !
 ! A21   A(3,4,5)              118.9076         estimate D2E/DX2                !
 ! A22   A(3,4,45)             120.9527         estimate D2E/DX2                !
 ! A23   A(5,4,45)             120.1388         estimate D2E/DX2                !
 ! A24   A(4,5,6)              120.4144         estimate D2E/DX2                !
 ! A25   A(4,5,46)             119.3419         estimate D2E/DX2                !
 ! A26   A(6,5,46)             120.2436         estimate D2E/DX2                !
 ! A27   A(5,6,7)              118.0817         estimate D2E/DX2                !
 ! A28   A(5,6,8)              123.7286         estimate D2E/DX2                !
 ! A29   A(7,6,8)              118.1876         estimate D2E/DX2                !
 ! A30   A(2,7,6)              122.0757         estimate D2E/DX2                !
 ! A31   A(2,7,11)             117.5752         estimate D2E/DX2                !
 ! A32   A(6,7,11)             120.3419         estimate D2E/DX2                !
 ! A33   A(6,8,9)              120.3099         estimate D2E/DX2                !
 ! A34   A(6,8,47)             119.7217         estimate D2E/DX2                !
 ! A35   A(9,8,47)             119.9323         estimate D2E/DX2                !
 ! A36   A(8,9,10)             122.5645         estimate D2E/DX2                !
 ! A37   A(8,9,48)             118.408          estimate D2E/DX2                !
 ! A38   A(10,9,48)            119.0269         estimate D2E/DX2                !
 ! A39   A(9,10,11)            119.2841         estimate D2E/DX2                !
 ! A40   A(9,10,12)            125.4809         estimate D2E/DX2                !
 ! A41   A(11,10,12)           115.1476         estimate D2E/DX2                !
 ! A42   A(7,11,10)            119.3013         estimate D2E/DX2                !
 ! A43   A(7,11,15)            114.1189         estimate D2E/DX2                !
 ! A44   A(10,11,15)           126.5622         estimate D2E/DX2                !
 ! A45   A(10,12,13)           118.603          estimate D2E/DX2                !
 ! A46   A(10,12,49)           120.5005         estimate D2E/DX2                !
 ! A47   A(13,12,49)           120.8781         estimate D2E/DX2                !
 ! A48   A(12,13,14)           121.8295         estimate D2E/DX2                !
 ! A49   A(12,13,50)           119.0758         estimate D2E/DX2                !
 ! A50   A(14,13,50)           119.0939         estimate D2E/DX2                !
 ! A51   A(13,14,15)           121.3755         estimate D2E/DX2                !
 ! A52   A(13,14,51)           119.9053         estimate D2E/DX2                !
 ! A53   A(15,14,51)           118.7142         estimate D2E/DX2                !
 ! A54   A(1,15,11)            116.3144         estimate D2E/DX2                !
 ! A55   A(1,15,14)            127.1947         estimate D2E/DX2                !
 ! A56   A(11,15,14)           116.4766         estimate D2E/DX2                !
 ! A57   A(1,16,17)            130.3231         estimate D2E/DX2                !
 ! A58   A(1,16,21)            111.6173         estimate D2E/DX2                !
 ! A59   A(17,16,21)           117.0612         estimate D2E/DX2                !
 ! A60   A(16,17,18)           126.673          estimate D2E/DX2                !
 ! A61   A(16,17,52)           116.3587         estimate D2E/DX2                !
 ! A62   A(18,17,52)           116.9664         estimate D2E/DX2                !
 ! A63   A(17,18,19)           116.9187         estimate D2E/DX2                !
 ! A64   A(17,18,53)           123.4913         estimate D2E/DX2                !
 ! A65   A(19,18,53)           119.5801         estimate D2E/DX2                !
 ! A66   A(18,19,20)           120.2633         estimate D2E/DX2                !
 ! A67   A(18,19,54)           120.7171         estimate D2E/DX2                !
 ! A68   A(20,19,54)           118.9721         estimate D2E/DX2                !
 ! A69   A(19,20,21)           118.5756         estimate D2E/DX2                !
 ! A70   A(19,20,22)           125.476          estimate D2E/DX2                !
 ! A71   A(21,20,22)           115.9374         estimate D2E/DX2                !
 ! A72   A(16,21,20)           120.4406         estimate D2E/DX2                !
 ! A73   A(16,21,25)           117.0849         estimate D2E/DX2                !
 ! A74   A(20,21,25)           122.388          estimate D2E/DX2                !
 ! A75   A(20,22,23)           122.0884         estimate D2E/DX2                !
 ! A76   A(20,22,55)           117.6293         estimate D2E/DX2                !
 ! A77   A(23,22,55)           120.199          estimate D2E/DX2                !
 ! A78   A(22,23,24)           121.7564         estimate D2E/DX2                !
 ! A79   A(22,23,56)           118.3356         estimate D2E/DX2                !
 ! A80   A(24,23,56)           119.9011         estimate D2E/DX2                !
 ! A81   A(23,24,25)           117.4269         estimate D2E/DX2                !
 ! A82   A(23,24,26)           124.0192         estimate D2E/DX2                !
 ! A83   A(25,24,26)           118.5525         estimate D2E/DX2                !
 ! A84   A(21,25,24)           120.3391         estimate D2E/DX2                !
 ! A85   A(21,25,29)           115.8174         estimate D2E/DX2                !
 ! A86   A(24,25,29)           123.7271         estimate D2E/DX2                !
 ! A87   A(24,26,27)           119.6589         estimate D2E/DX2                !
 ! A88   A(24,26,57)           120.119          estimate D2E/DX2                !
 ! A89   A(27,26,57)           120.176          estimate D2E/DX2                !
 ! A90   A(26,27,28)           118.1603         estimate D2E/DX2                !
 ! A91   A(26,27,58)           120.3832         estimate D2E/DX2                !
 ! A92   A(28,27,58)           121.4563         estimate D2E/DX2                !
 ! A93   A(27,28,29)           121.863          estimate D2E/DX2                !
 ! A94   A(27,28,59)           120.1334         estimate D2E/DX2                !
 ! A95   A(29,28,59)           118.0            estimate D2E/DX2                !
 ! A96   A(1,29,25)            115.3892         estimate D2E/DX2                !
 ! A97   A(1,29,28)            126.775          estimate D2E/DX2                !
 ! A98   A(25,29,28)           117.8265         estimate D2E/DX2                !
 ! A99   A(1,30,31)            128.177          estimate D2E/DX2                !
 ! A100  A(1,30,35)            113.2429         estimate D2E/DX2                !
 ! A101  A(31,30,35)           118.5144         estimate D2E/DX2                !
 ! A102  A(30,31,32)           123.6766         estimate D2E/DX2                !
 ! A103  A(30,31,60)           118.3606         estimate D2E/DX2                !
 ! A104  A(32,31,60)           117.8702         estimate D2E/DX2                !
 ! A105  A(31,32,33)           118.4688         estimate D2E/DX2                !
 ! A106  A(31,32,61)           120.4284         estimate D2E/DX2                !
 ! A107  A(33,32,61)           121.0946         estimate D2E/DX2                !
 ! A108  A(32,33,34)           118.1321         estimate D2E/DX2                !
 ! A109  A(32,33,62)           119.7861         estimate D2E/DX2                !
 ! A110  A(34,33,62)           122.0785         estimate D2E/DX2                !
 ! A111  A(33,34,35)           121.8976         estimate D2E/DX2                !
 ! A112  A(33,34,36)           120.7633         estimate D2E/DX2                !
 ! A113  A(35,34,36)           117.3343         estimate D2E/DX2                !
 ! A114  A(30,35,34)           119.2449         estimate D2E/DX2                !
 ! A115  A(30,35,39)           117.1008         estimate D2E/DX2                !
 ! A116  A(34,35,39)           123.6046         estimate D2E/DX2                !
 ! A117  A(34,36,37)           118.821          estimate D2E/DX2                !
 ! A118  A(34,36,63)           119.8507         estimate D2E/DX2                !
 ! A119  A(37,36,63)           121.3047         estimate D2E/DX2                !
 ! A120  A(36,37,38)           125.6445         estimate D2E/DX2                !
 ! A121  A(36,37,64)           115.4843         estimate D2E/DX2                !
 ! A122  A(38,37,64)           118.8601         estimate D2E/DX2                !
 ! A123  A(37,38,39)           114.2572         estimate D2E/DX2                !
 ! A124  A(37,38,40)           127.2738         estimate D2E/DX2                !
 ! A125  A(39,38,40)           118.456          estimate D2E/DX2                !
 ! A126  A(35,39,38)           120.3209         estimate D2E/DX2                !
 ! A127  A(35,39,43)           118.0378         estimate D2E/DX2                !
 ! A128  A(38,39,43)           121.6398         estimate D2E/DX2                !
 ! A129  A(38,40,41)           120.4529         estimate D2E/DX2                !
 ! A130  A(38,40,65)           120.4191         estimate D2E/DX2                !
 ! A131  A(41,40,65)           119.1261         estimate D2E/DX2                !
 ! A132  A(40,41,42)           121.6075         estimate D2E/DX2                !
 ! A133  A(40,41,66)           118.9615         estimate D2E/DX2                !
 ! A134  A(42,41,66)           119.4293         estimate D2E/DX2                !
 ! A135  A(41,42,43)           115.7264         estimate D2E/DX2                !
 ! A136  A(41,42,67)           123.4598         estimate D2E/DX2                !
 ! A137  A(43,42,67)           120.8138         estimate D2E/DX2                !
 ! A138  A(1,43,39)            112.0548         estimate D2E/DX2                !
 ! A139  A(1,43,42)            125.9098         estimate D2E/DX2                !
 ! A140  A(39,43,42)           122.0194         estimate D2E/DX2                !
 ! A141  L(15,1,16,2,-2)       176.1094         estimate D2E/DX2                !
 ! D1    D(15,1,2,3)           178.5221         estimate D2E/DX2                !
 ! D2    D(15,1,2,7)            -1.5129         estimate D2E/DX2                !
 ! D3    D(16,1,2,3)             2.4127         estimate D2E/DX2                !
 ! D4    D(16,1,2,7)          -177.6223         estimate D2E/DX2                !
 ! D5    D(29,1,2,3)            81.5832         estimate D2E/DX2                !
 ! D6    D(29,1,2,7)           -98.4517         estimate D2E/DX2                !
 ! D7    D(30,1,2,3)           -91.3812         estimate D2E/DX2                !
 ! D8    D(30,1,2,7)            88.5839         estimate D2E/DX2                !
 ! D9    D(43,1,2,3)          -142.8878         estimate D2E/DX2                !
 ! D10   D(43,1,2,7)            37.0772         estimate D2E/DX2                !
 ! D11   D(2,1,15,11)            0.8554         estimate D2E/DX2                !
 ! D12   D(2,1,15,14)          179.4213         estimate D2E/DX2                !
 ! D13   D(29,1,15,11)          90.866          estimate D2E/DX2                !
 ! D14   D(29,1,15,14)         -90.5681         estimate D2E/DX2                !
 ! D15   D(30,1,15,11)         -93.8043         estimate D2E/DX2                !
 ! D16   D(30,1,15,14)          84.7616         estimate D2E/DX2                !
 ! D17   D(43,1,15,11)        -173.3288         estimate D2E/DX2                !
 ! D18   D(43,1,15,14)           5.2371         estimate D2E/DX2                !
 ! D19   D(11,15,16,17)        -92.8445         estimate D2E/DX2                !
 ! D20   D(11,15,16,21)         98.37           estimate D2E/DX2                !
 ! D21   D(14,15,16,17)         88.1397         estimate D2E/DX2                !
 ! D22   D(14,15,16,21)        -80.6458         estimate D2E/DX2                !
 ! D23   D(2,1,16,17)          -93.8873         estimate D2E/DX2                !
 ! D24   D(2,1,16,21)           98.0966         estimate D2E/DX2                !
 ! D25   D(29,1,16,17)         176.6025         estimate D2E/DX2                !
 ! D26   D(29,1,16,21)           8.5864         estimate D2E/DX2                !
 ! D27   D(30,1,16,17)           1.4486         estimate D2E/DX2                !
 ! D28   D(30,1,16,21)        -166.5675         estimate D2E/DX2                !
 ! D29   D(43,1,16,17)          80.8133         estimate D2E/DX2                !
 ! D30   D(43,1,16,21)         -87.2028         estimate D2E/DX2                !
 ! D31   D(2,1,29,25)         -105.3662         estimate D2E/DX2                !
 ! D32   D(2,1,29,28)           75.7749         estimate D2E/DX2                !
 ! D33   D(15,1,29,25)         175.3928         estimate D2E/DX2                !
 ! D34   D(15,1,29,28)          -3.4661         estimate D2E/DX2                !
 ! D35   D(16,1,29,25)          -5.8286         estimate D2E/DX2                !
 ! D36   D(16,1,29,28)         175.3125         estimate D2E/DX2                !
 ! D37   D(30,1,29,25)          25.6212         estimate D2E/DX2                !
 ! D38   D(30,1,29,28)        -153.2377         estimate D2E/DX2                !
 ! D39   D(43,1,29,25)          81.1847         estimate D2E/DX2                !
 ! D40   D(43,1,29,28)         -97.6742         estimate D2E/DX2                !
 ! D41   D(2,1,30,31)            9.4753         estimate D2E/DX2                !
 ! D42   D(2,1,30,35)         -173.5521         estimate D2E/DX2                !
 ! D43   D(15,1,30,31)          88.679          estimate D2E/DX2                !
 ! D44   D(15,1,30,35)         -94.3485         estimate D2E/DX2                !
 ! D45   D(16,1,30,31)         -90.4366         estimate D2E/DX2                !
 ! D46   D(16,1,30,35)          86.5359         estimate D2E/DX2                !
 ! D47   D(29,1,30,31)        -121.3012         estimate D2E/DX2                !
 ! D48   D(29,1,30,35)          55.6714         estimate D2E/DX2                !
 ! D49   D(43,1,30,31)        -177.9412         estimate D2E/DX2                !
 ! D50   D(43,1,30,35)          -0.9686         estimate D2E/DX2                !
 ! D51   D(2,1,43,39)           51.7613         estimate D2E/DX2                !
 ! D52   D(2,1,43,42)         -126.8011         estimate D2E/DX2                !
 ! D53   D(15,1,43,39)          89.6232         estimate D2E/DX2                !
 ! D54   D(15,1,43,42)         -88.9393         estimate D2E/DX2                !
 ! D55   D(16,1,43,39)         -94.0732         estimate D2E/DX2                !
 ! D56   D(16,1,43,42)          87.3643         estimate D2E/DX2                !
 ! D57   D(29,1,43,39)        -172.9379         estimate D2E/DX2                !
 ! D58   D(29,1,43,42)           8.4996         estimate D2E/DX2                !
 ! D59   D(30,1,43,39)          -0.7338         estimate D2E/DX2                !
 ! D60   D(30,1,43,42)        -179.2963         estimate D2E/DX2                !
 ! D61   D(1,2,3,4)            177.7513         estimate D2E/DX2                !
 ! D62   D(1,2,3,44)            -1.0843         estimate D2E/DX2                !
 ! D63   D(7,2,3,4)             -2.2118         estimate D2E/DX2                !
 ! D64   D(7,2,3,44)           178.9525         estimate D2E/DX2                !
 ! D65   D(1,2,7,6)           -177.0018         estimate D2E/DX2                !
 ! D66   D(1,2,7,11)             2.0238         estimate D2E/DX2                !
 ! D67   D(3,2,7,6)              2.9668         estimate D2E/DX2                !
 ! D68   D(3,2,7,11)          -178.0076         estimate D2E/DX2                !
 ! D69   D(2,3,4,5)             -1.2537         estimate D2E/DX2                !
 ! D70   D(2,3,4,45)           179.1013         estimate D2E/DX2                !
 ! D71   D(44,3,4,5)           177.5928         estimate D2E/DX2                !
 ! D72   D(44,3,4,45)           -2.0522         estimate D2E/DX2                !
 ! D73   D(3,4,5,6)              4.0666         estimate D2E/DX2                !
 ! D74   D(3,4,5,46)          -175.8933         estimate D2E/DX2                !
 ! D75   D(45,4,5,6)          -176.2854         estimate D2E/DX2                !
 ! D76   D(45,4,5,46)            3.7547         estimate D2E/DX2                !
 ! D77   D(4,5,6,7)             -3.3414         estimate D2E/DX2                !
 ! D78   D(4,5,6,8)            177.1904         estimate D2E/DX2                !
 ! D79   D(46,5,6,7)           176.6181         estimate D2E/DX2                !
 ! D80   D(46,5,6,8)            -2.8501         estimate D2E/DX2                !
 ! D81   D(5,6,7,2)             -0.2024         estimate D2E/DX2                !
 ! D82   D(5,6,7,11)          -179.2016         estimate D2E/DX2                !
 ! D83   D(8,6,7,2)            179.2958         estimate D2E/DX2                !
 ! D84   D(8,6,7,11)             0.2966         estimate D2E/DX2                !
 ! D85   D(5,6,8,9)            179.3636         estimate D2E/DX2                !
 ! D86   D(5,6,8,47)             1.5505         estimate D2E/DX2                !
 ! D87   D(7,6,8,9)             -0.1041         estimate D2E/DX2                !
 ! D88   D(7,6,8,47)          -177.9172         estimate D2E/DX2                !
 ! D89   D(2,7,11,10)         -179.9187         estimate D2E/DX2                !
 ! D90   D(2,7,11,15)           -1.3428         estimate D2E/DX2                !
 ! D91   D(6,7,11,10)           -0.8754         estimate D2E/DX2                !
 ! D92   D(6,7,11,15)          177.7005         estimate D2E/DX2                !
 ! D93   D(6,8,9,10)             0.4854         estimate D2E/DX2                !
 ! D94   D(6,8,9,48)          -179.8017         estimate D2E/DX2                !
 ! D95   D(47,8,9,10)          178.2939         estimate D2E/DX2                !
 ! D96   D(47,8,9,48)           -1.9932         estimate D2E/DX2                !
 ! D97   D(8,9,10,11)           -1.068          estimate D2E/DX2                !
 ! D98   D(8,9,10,12)         -177.4935         estimate D2E/DX2                !
 ! D99   D(48,9,10,11)         179.2208         estimate D2E/DX2                !
 ! D100  D(48,9,10,12)           2.7953         estimate D2E/DX2                !
 ! D101  D(9,10,11,7)            1.2257         estimate D2E/DX2                !
 ! D102  D(9,10,11,15)        -177.156          estimate D2E/DX2                !
 ! D103  D(12,10,11,7)         178.0106         estimate D2E/DX2                !
 ! D104  D(12,10,11,15)         -0.3712         estimate D2E/DX2                !
 ! D105  D(9,10,12,13)         177.2339         estimate D2E/DX2                !
 ! D106  D(9,10,12,49)          -1.2157         estimate D2E/DX2                !
 ! D107  D(11,10,12,13)          0.6779         estimate D2E/DX2                !
 ! D108  D(11,10,12,49)       -177.7718         estimate D2E/DX2                !
 ! D109  D(7,11,15,1)           -0.0343         estimate D2E/DX2                !
 ! D110  D(7,11,15,14)        -178.7581         estimate D2E/DX2                !
 ! D111  D(10,11,15,1)         178.4195         estimate D2E/DX2                !
 ! D112  D(10,11,15,14)         -0.3043         estimate D2E/DX2                !
 ! D113  D(10,12,13,14)         -0.3368         estimate D2E/DX2                !
 ! D114  D(10,12,13,50)        179.3365         estimate D2E/DX2                !
 ! D115  D(49,12,13,14)        178.1068         estimate D2E/DX2                !
 ! D116  D(49,12,13,50)         -2.2199         estimate D2E/DX2                !
 ! D117  D(12,13,14,15)         -0.3794         estimate D2E/DX2                !
 ! D118  D(12,13,14,51)        178.7982         estimate D2E/DX2                !
 ! D119  D(50,13,14,15)        179.9473         estimate D2E/DX2                !
 ! D120  D(50,13,14,51)         -0.8751         estimate D2E/DX2                !
 ! D121  D(13,14,15,1)        -177.8732         estimate D2E/DX2                !
 ! D122  D(13,14,15,11)          0.6907         estimate D2E/DX2                !
 ! D123  D(51,14,15,1)           2.9396         estimate D2E/DX2                !
 ! D124  D(51,14,15,11)       -178.4965         estimate D2E/DX2                !
 ! D125  D(1,16,17,18)        -168.3768         estimate D2E/DX2                !
 ! D126  D(1,16,17,52)          11.1013         estimate D2E/DX2                !
 ! D127  D(21,16,17,18)         -0.8959         estimate D2E/DX2                !
 ! D128  D(21,16,17,52)        178.5823         estimate D2E/DX2                !
 ! D129  D(1,16,21,20)         172.5615         estimate D2E/DX2                !
 ! D130  D(1,16,21,25)         -10.7406         estimate D2E/DX2                !
 ! D131  D(17,16,21,20)          2.8011         estimate D2E/DX2                !
 ! D132  D(17,16,21,25)        179.499          estimate D2E/DX2                !
 ! D133  D(16,17,18,19)         -0.878          estimate D2E/DX2                !
 ! D134  D(16,17,18,53)        177.9698         estimate D2E/DX2                !
 ! D135  D(52,17,18,19)        179.6466         estimate D2E/DX2                !
 ! D136  D(52,17,18,53)         -1.5055         estimate D2E/DX2                !
 ! D137  D(17,18,19,20)          0.7492         estimate D2E/DX2                !
 ! D138  D(17,18,19,54)       -176.7185         estimate D2E/DX2                !
 ! D139  D(53,18,19,20)       -178.1459         estimate D2E/DX2                !
 ! D140  D(53,18,19,54)          4.3864         estimate D2E/DX2                !
 ! D141  D(18,19,20,21)          1.0851         estimate D2E/DX2                !
 ! D142  D(18,19,20,22)        179.8284         estimate D2E/DX2                !
 ! D143  D(54,19,20,21)        178.5966         estimate D2E/DX2                !
 ! D144  D(54,19,20,22)         -2.66           estimate D2E/DX2                !
 ! D145  D(19,20,21,16)         -2.9084         estimate D2E/DX2                !
 ! D146  D(19,20,21,25)       -179.4266         estimate D2E/DX2                !
 ! D147  D(22,20,21,16)        178.2296         estimate D2E/DX2                !
 ! D148  D(22,20,21,25)          1.7113         estimate D2E/DX2                !
 ! D149  D(19,20,22,23)        178.5484         estimate D2E/DX2                !
 ! D150  D(19,20,22,55)          1.8628         estimate D2E/DX2                !
 ! D151  D(21,20,22,23)         -2.6788         estimate D2E/DX2                !
 ! D152  D(21,20,22,55)       -179.3644         estimate D2E/DX2                !
 ! D153  D(16,21,25,24)       -177.613          estimate D2E/DX2                !
 ! D154  D(16,21,25,29)          6.1647         estimate D2E/DX2                !
 ! D155  D(20,21,25,24)         -0.9845         estimate D2E/DX2                !
 ! D156  D(20,21,25,29)       -177.2068         estimate D2E/DX2                !
 ! D157  D(20,22,23,24)          2.8605         estimate D2E/DX2                !
 ! D158  D(20,22,23,56)       -178.1002         estimate D2E/DX2                !
 ! D159  D(55,22,23,24)        179.4628         estimate D2E/DX2                !
 ! D160  D(55,22,23,56)         -1.4978         estimate D2E/DX2                !
 ! D161  D(22,23,24,25)         -1.9427         estimate D2E/DX2                !
 ! D162  D(22,23,24,26)        178.4816         estimate D2E/DX2                !
 ! D163  D(56,23,24,25)        179.0327         estimate D2E/DX2                !
 ! D164  D(56,23,24,26)         -0.543          estimate D2E/DX2                !
 ! D165  D(23,24,25,21)          0.9627         estimate D2E/DX2                !
 ! D166  D(23,24,25,29)        176.8733         estimate D2E/DX2                !
 ! D167  D(26,24,25,21)       -179.4377         estimate D2E/DX2                !
 ! D168  D(26,24,25,29)         -3.527          estimate D2E/DX2                !
 ! D169  D(23,24,26,27)        178.7392         estimate D2E/DX2                !
 ! D170  D(23,24,26,57)          1.2055         estimate D2E/DX2                !
 ! D171  D(25,24,26,27)         -0.832          estimate D2E/DX2                !
 ! D172  D(25,24,26,57)       -178.3658         estimate D2E/DX2                !
 ! D173  D(21,25,29,1)           1.6879         estimate D2E/DX2                !
 ! D174  D(21,25,29,28)       -179.3456         estimate D2E/DX2                !
 ! D175  D(24,25,29,1)        -174.3917         estimate D2E/DX2                !
 ! D176  D(24,25,29,28)          4.5748         estimate D2E/DX2                !
 ! D177  D(24,26,27,28)          3.7025         estimate D2E/DX2                !
 ! D178  D(24,26,27,58)       -176.1634         estimate D2E/DX2                !
 ! D179  D(57,26,27,28)       -178.7652         estimate D2E/DX2                !
 ! D180  D(57,26,27,58)          1.369          estimate D2E/DX2                !
 ! D181  D(26,27,28,29)         -2.6758         estimate D2E/DX2                !
 ! D182  D(26,27,28,59)        176.6207         estimate D2E/DX2                !
 ! D183  D(58,27,28,29)        177.1885         estimate D2E/DX2                !
 ! D184  D(58,27,28,59)         -3.515          estimate D2E/DX2                !
 ! D185  D(27,28,29,1)         177.4487         estimate D2E/DX2                !
 ! D186  D(27,28,29,25)         -1.3856         estimate D2E/DX2                !
 ! D187  D(59,28,29,1)          -1.8622         estimate D2E/DX2                !
 ! D188  D(59,28,29,25)        179.3035         estimate D2E/DX2                !
 ! D189  D(1,30,31,32)         177.5257         estimate D2E/DX2                !
 ! D190  D(1,30,31,60)          -6.053          estimate D2E/DX2                !
 ! D191  D(35,30,31,32)          0.6916         estimate D2E/DX2                !
 ! D192  D(35,30,31,60)        177.1129         estimate D2E/DX2                !
 ! D193  D(1,30,35,34)        -179.905          estimate D2E/DX2                !
 ! D194  D(1,30,35,39)           2.5647         estimate D2E/DX2                !
 ! D195  D(31,30,35,34)         -2.6132         estimate D2E/DX2                !
 ! D196  D(31,30,35,39)        179.8565         estimate D2E/DX2                !
 ! D197  D(30,31,32,33)          1.2502         estimate D2E/DX2                !
 ! D198  D(30,31,32,61)       -177.7177         estimate D2E/DX2                !
 ! D199  D(60,31,32,33)       -175.1875         estimate D2E/DX2                !
 ! D200  D(60,31,32,61)          5.8446         estimate D2E/DX2                !
 ! D201  D(31,32,33,34)         -1.1484         estimate D2E/DX2                !
 ! D202  D(31,32,33,62)        179.496          estimate D2E/DX2                !
 ! D203  D(61,32,33,34)        177.8124         estimate D2E/DX2                !
 ! D204  D(61,32,33,62)         -1.5433         estimate D2E/DX2                !
 ! D205  D(32,33,34,35)         -0.7861         estimate D2E/DX2                !
 ! D206  D(32,33,34,36)       -179.9778         estimate D2E/DX2                !
 ! D207  D(62,33,34,35)        178.5539         estimate D2E/DX2                !
 ! D208  D(62,33,34,36)         -0.6378         estimate D2E/DX2                !
 ! D209  D(33,34,35,30)          2.7381         estimate D2E/DX2                !
 ! D210  D(33,34,35,39)       -179.9018         estimate D2E/DX2                !
 ! D211  D(36,34,35,30)       -178.0438         estimate D2E/DX2                !
 ! D212  D(36,34,35,39)         -0.6836         estimate D2E/DX2                !
 ! D213  D(33,34,36,37)       -179.274          estimate D2E/DX2                !
 ! D214  D(33,34,36,63)         -1.0179         estimate D2E/DX2                !
 ! D215  D(35,34,36,37)          1.4986         estimate D2E/DX2                !
 ! D216  D(35,34,36,63)        179.7546         estimate D2E/DX2                !
 ! D217  D(30,35,39,38)        177.0622         estimate D2E/DX2                !
 ! D218  D(30,35,39,43)         -3.3767         estimate D2E/DX2                !
 ! D219  D(34,35,39,38)         -0.3504         estimate D2E/DX2                !
 ! D220  D(34,35,39,43)        179.2107         estimate D2E/DX2                !
 ! D221  D(34,36,37,38)         -1.3405         estimate D2E/DX2                !
 ! D222  D(34,36,37,64)        179.8928         estimate D2E/DX2                !
 ! D223  D(63,36,37,38)       -179.5702         estimate D2E/DX2                !
 ! D224  D(63,36,37,64)          1.6631         estimate D2E/DX2                !
 ! D225  D(36,37,38,39)          0.3032         estimate D2E/DX2                !
 ! D226  D(36,37,38,40)        178.9546         estimate D2E/DX2                !
 ! D227  D(64,37,38,39)        179.032          estimate D2E/DX2                !
 ! D228  D(64,37,38,40)         -2.3166         estimate D2E/DX2                !
 ! D229  D(37,38,39,35)          0.5779         estimate D2E/DX2                !
 ! D230  D(37,38,39,43)       -178.9671         estimate D2E/DX2                !
 ! D231  D(40,38,39,35)       -178.2015         estimate D2E/DX2                !
 ! D232  D(40,38,39,43)          2.2536         estimate D2E/DX2                !
 ! D233  D(37,38,40,41)        178.83           estimate D2E/DX2                !
 ! D234  D(37,38,40,65)         -0.6609         estimate D2E/DX2                !
 ! D235  D(39,38,40,41)         -2.5686         estimate D2E/DX2                !
 ! D236  D(39,38,40,65)        177.9405         estimate D2E/DX2                !
 ! D237  D(35,39,43,1)           2.3794         estimate D2E/DX2                !
 ! D238  D(35,39,43,42)       -178.9938         estimate D2E/DX2                !
 ! D239  D(38,39,43,1)        -178.0656         estimate D2E/DX2                !
 ! D240  D(38,39,43,42)          0.5611         estimate D2E/DX2                !
 ! D241  D(38,40,41,42)          0.2985         estimate D2E/DX2                !
 ! D242  D(38,40,41,66)       -179.2201         estimate D2E/DX2                !
 ! D243  D(65,40,41,42)        179.7959         estimate D2E/DX2                !
 ! D244  D(65,40,41,66)          0.2773         estimate D2E/DX2                !
 ! D245  D(40,41,42,43)          2.3841         estimate D2E/DX2                !
 ! D246  D(40,41,42,67)       -177.5534         estimate D2E/DX2                !
 ! D247  D(66,41,42,43)       -178.0995         estimate D2E/DX2                !
 ! D248  D(66,41,42,67)          1.963          estimate D2E/DX2                !
 ! D249  D(41,42,43,1)         175.6883         estimate D2E/DX2                !
 ! D250  D(41,42,43,39)         -2.7402         estimate D2E/DX2                !
 ! D251  D(67,42,43,1)          -4.3724         estimate D2E/DX2                !
 ! D252  D(67,42,43,39)        177.1991         estimate D2E/DX2                !
 --------------------------------------------------------------------------------
 Trust Radius=3.00D-01 FncErr=1.00D-07 GrdErr=1.00D-06
 Number of steps in this run= 402 maximum allowed number of steps= 402.
 GradGradGradGradGradGradGradGradGradGradGradGradGradGradGradGradGradGrad

                          Input orientation:                          
 ---------------------------------------------------------------------
 Center     Atomic     Atomic              Coordinates (Angstroms)
 Number     Number      Type              X           Y           Z
 ---------------------------------------------------------------------
    1         76             0       25.839000   11.380000    7.526000
    2          7             0       26.789000   12.578000    6.146000
    3          6             0       28.000000   13.155000    6.239000
    4          6             0       28.539000   13.923000    5.169000
    5          6             0       27.806000   14.052000    4.003000
    6          6             0       26.522000   13.509000    3.911000
    7          6             0       26.037000   12.777000    5.000000
    8          6             0       25.668000   13.652000    2.746000
    9          6             0       24.479000   13.104000    2.727000
   10          6             0       23.959000   12.360000    3.827000
   11          6             0       24.737000   12.186000    4.951000
   12          6             0       22.680000   11.687000    3.855000
   13          6             0       22.345000   10.964000    4.966000
   14          6             0       23.188000   10.858000    6.040000
   15          7             0       24.416000   11.469000    6.047000
   16          7             0       27.238000   11.428000    9.046000
   17          6             0       28.210000   10.615000    9.317000
   18          6             0       28.972000   10.588000   10.484000
   19          6             0       28.673000   11.542000   11.455000
   20          6             0       27.640000   12.460000   11.246000
   21          6             0       26.896000   12.381000   10.042000
   22          6             0       27.230000   13.498000   12.181000
   23          6             0       26.259000   14.351000   11.902000
   24          6             0       25.494000   14.266000   10.660000
   25          6             0       25.855000   13.265000    9.746000
   26          6             0       24.462000   15.104000   10.338000
   27          6             0       23.813000   14.958000    9.119000
   28          6             0       24.206000   13.863000    8.265000
   29          7             0       25.200000   13.034000    8.594000
   30          7             0       26.584000    9.601000    6.752000
   31          6             0       27.526000    9.437000    5.822000
   32          6             0       27.992000    8.191000    5.405000
   33          6             0       27.431000    7.053000    5.967000
   34          6             0       26.472000    7.213000    6.913000
   35          6             0       26.052000    8.493000    7.342000
   36          6             0       25.833000    6.036000    7.553000
   37          6             0       24.912000    6.232000    8.441000
   38          6             0       24.424000    7.590000    8.929000
   39          6             0       25.070000    8.699000    8.314000
   40          6             0       23.477000    7.827000    9.816000
   41          6             0       23.153000    9.161000   10.185000
   42          6             0       23.831000   10.286000    9.609000
   43          7             0       24.762000    9.992000    8.656000
   44          1             0       28.525000   13.037000    7.035000
   45          1             0       29.401000   14.344000    5.247000
   46          1             0       28.189000   14.519000    3.255000
   47          1             0       25.988000   14.121000    1.980000
   48          1             0       23.940000   13.213000    1.944000
   49          1             0       22.091000   11.730000    3.100000
   50          1             0       21.487000   10.519000    4.996000
   51          1             0       22.919000   10.360000    6.809000
   52          1             0       28.419000    9.961000    8.645000
   53          1             0       29.666000    9.945000   10.649000
   54          1             0       29.193000   11.603000   12.258000
   55          1             0       27.722000   13.579000   12.998000
   56          1             0       26.052000   15.029000   12.544000
   57          1             0       24.212000   15.810000   10.935000
   58          1             0       23.128000   15.571000    8.860000
   59          1             0       23.745000   13.707000    7.441000
   60          1             0       27.869000   10.216000    5.378000
   61          1             0       28.692000    8.128000    4.758000
   62          1             0       27.733000    6.184000    5.688000
   63          1             0       26.089000    5.148000    7.286000
   64          1             0       24.529000    5.435000    8.824000
   65          1             0       22.997000    7.092000   10.231000
   66          1             0       22.470000    9.308000   10.839000
   67          1             0       23.659000   11.188000    9.861000
 ---------------------------------------------------------------------
 Stoichiometry    C36H24N6Os(2+)
 Framework group  C1[X(C36H24N6Os)]
 Deg. of freedom   195
 Full point group                 C1
 Largest Abelian subgroup         C1      NOp   1
 Largest concise Abelian subgroup C1      NOp   1
                         Standard orientation:                         
 ---------------------------------------------------------------------
 Center     Atomic     Atomic              Coordinates (Angstroms)
 Number     Number      Type              X           Y           Z
 ---------------------------------------------------------------------
    1         76             0        0.031897   -0.085842   -0.042976
    2          7             0        1.369164   -1.223881   -1.119400
    3          6             0        1.154608   -1.902380   -2.260322
    4          6             0        2.204653   -2.609227   -2.910719
    5          6             0        3.474995   -2.570866   -2.364600
    6          6             0        3.703113   -1.920341   -1.149384
    7          6             0        2.629963   -1.255312   -0.546844
    8          6             0        4.992195   -1.886249   -0.482979
    9          6             0        5.133683   -1.245123    0.649861
   10          6             0        4.053761   -0.566388    1.287845
   11          6             0        2.813253   -0.559828    0.687817
   12          6             0        4.149690    0.201693    2.508665
   13          6             0        3.033191    0.843714    2.967482
   14          6             0        1.839063    0.782175    2.299924
   15          7             0        1.710007    0.076497    1.130857
   16          7             0       -1.668707   -0.386006   -1.177767
   17          6             0       -2.166115    0.317841   -2.145434
   18          6             0       -3.431256    0.175824   -2.713336
   19          6             0       -4.241880   -0.836549   -2.203094
   20          6             0       -3.785337   -1.645427   -1.158690
   21          6             0       -2.497518   -1.396239   -0.621269
   22          6             0       -4.535107   -2.728936   -0.539317
   23          6             0       -4.025843   -3.471826    0.428699
   24          6             0       -2.698117   -3.211492    0.980409
   25          6             0       -1.957760   -2.162707    0.415042
   26          6             0       -2.138921   -3.930630    2.000748
   27          6             0       -0.857642   -3.621190    2.437839
   28          6             0       -0.190838   -2.487214    1.844324
   29          7             0       -0.750245   -1.774602    0.863118
   30          7             0        0.496056    1.691355   -1.015123
   31          6             0        1.251084    1.864238   -2.101034
   32          6             0        1.461615    3.101918   -2.707157
   33          6             0        0.875983    4.224603   -2.139510
   34          6             0        0.107378    4.055580   -1.034578
   35          6             0       -0.118375    2.779354   -0.469668
   36          6             0       -0.547194    5.216043   -0.380276
   37          6             0       -1.260790    5.013587    0.680381
   38          6             0       -1.526198    3.659966    1.326694
   39          6             0       -0.904303    2.564125    0.665030
   40          6             0       -2.230638    3.418998    2.415476
   41          6             0       -2.406312    2.087001    2.879820
   42          6             0       -1.825932    0.969113    2.193837
   43          7             0       -1.060095    1.274025    1.106671
   44          1             0        0.280562   -1.900834   -2.659327
   45          1             0        2.041394   -3.103486   -3.720302
   46          1             0        4.200871   -2.996139   -2.829926
   47          1             0        5.745488   -2.306788   -0.888952
   48          1             0        5.996132   -1.237812    1.064131
   49          1             0        4.985328    0.275943    2.972337
   50          1             0        3.087187    1.351512    3.788648
   51          1             0        1.072116    1.227124    2.654237
   52          1             0       -1.604773    1.012120   -2.500192
   53          1             0       -3.764866    0.743048   -3.412814
   54          1             0       -5.103515   -1.012904   -2.584426
   55          1             0       -5.404206   -2.924183   -0.889547
   56          1             0       -4.555509   -4.187318    0.778301
   57          1             0       -2.614954   -4.666309    2.387418
   58          1             0       -0.436087   -4.150694    3.111629
   59          1             0        0.672693   -2.219374    2.158027
   60          1             0        1.716454    1.104484   -2.458569
   61          1             0        1.985436    3.167896   -3.503296
   62          1             0        1.014659    5.088557   -2.537703
   63          1             0       -0.415336    6.101442   -0.732485
   64          1             0       -1.662014    5.800043    1.066506
   65          1             0       -2.642252    4.148759    2.906265
   66          1             0       -2.930882    1.935643    3.665778
   67          1             0       -1.954280    0.064457    2.461820
 ---------------------------------------------------------------------
 Rotational constants (GHZ):      0.1008360      0.0941311      0.0716155
 Standard basis: SDD (6D, 10F)
 There are   507 symmetry adapted basis functions of A   symmetry.
 Integral buffers will be    131072 words long.
 Raffenetti 2 integral format.
 Two-electron integral symmetry is turned on.
   507 basis functions,  1169 primitive gaussians,   507 cartesian basis functions
   148 alpha electrons      148 beta electrons
       nuclear repulsion energy      5452.1728801338 Hartrees.
 NAtoms=   67 NActive=   67 NUniq=   67 SFac= 7.50D-01 NAtFMM=   80 NAOKFM=F Big=T
 One-electron integrals computed using PRISM.
   1 Symmetry operations used in ECPInt.
 ECPInt:  NShTT=   49455 NPrTT=  249830 LenC2=   41676 LenP2D=  122254.
 LDataN:  DoStor=F MaxTD1= 7 Len=  274
 LDataN:  DoStor=T MaxTD1= 7 Len=  274
 NBasis=   507 RedAO= T  NBF=   507
 NBsUse=   507 1.00D-06 NBFU=   507
 Defaulting to unpruned grid for atomic number  76.
 Harris functional with IExCor=  402 diagonalized for initial guess.
 ExpMin= 1.50D-02 ExpMax= 5.91D+03 ExpMxC= 8.87D+02 IAcc=3 IRadAn=         5 AccDes= 0.00D+00
 HarFok:  IExCor= 402 AccDes= 0.00D+00 IRadAn=         5 IDoV=1
 ScaDFX=  1.000000  1.000000  1.000000  1.000000
 Defaulting to unpruned grid for atomic number  76.
 Defaulting to unpruned grid for atomic number  76.
 Defaulting to unpruned grid for atomic number  76.
 Defaulting to unpruned grid for atomic number  76.
 Defaulting to unpruned grid for atomic number  76.
 Defaulting to unpruned grid for atomic number  76.
 Defaulting to unpruned grid for atomic number  76.
 Defaulting to unpruned grid for atomic number  76.
 Defaulting to unpruned grid for atomic number  76.
 Defaulting to unpruned grid for atomic number  76.
 Defaulting to unpruned grid for atomic number  76.
 Defaulting to unpruned grid for atomic number  76.
 Initial guess orbital symmetries:
       Occupied  (A) (A) (A) (A) (A) (A) (A) (A) (A) (A) (A) (A)
                 (A) (A) (A) (A) (A) (A) (A) (A) (A) (A) (A) (A)
                 (A) (A) (A) (A) (A) (A) (A) (A) (A) (A) (A) (A)
                 (A) (A) (A) (A) (A) (A) (A) (A) (A) (A) (A) (A)
                 (A) (A) (A) (A) (A) (A) (A) (A) (A) (A) (A) (A)
                 (A) (A) (A) (A) (A) (A) (A) (A) (A) (A) (A) (A)
                 (A) (A) (A) (A) (A) (A) (A) (A) (A) (A) (A) (A)
                 (A) (A) (A) (A) (A) (A) (A) (A) (A) (A) (A) (A)
                 (A) (A) (A) (A) (A) (A) (A) (A) (A) (A) (A) (A)
                 (A) (A) (A) (A) (A) (A) (A) (A) (A) (A) (A) (A)
                 (A) (A) (A) (A) (A) (A) (A) (A) (A) (A) (A) (A)
                 (A) (A) (A) (A) (A) (A) (A) (A) (A) (A) (A) (A)
                 (A) (A) (A) (A)
       Virtual   (A) (A) (A) (A) (A) (A) (A) (A) (A) (A) (A) (A)
                 (A) (A) (A) (A) (A) (A) (A) (A) (A) (A) (A) (A)
                 (A) (A) (A) (A) (A) (A) (A) (A) (A) (A) (A) (A)
                 (A) (A) (A) (A) (A) (A) (A) (A) (A) (A) (A) (A)
                 (A) (A) (A) (A) (A) (A) (A) (A) (A) (A) (A) (A)
                 (A) (A) (A) (A) (A) (A) (A) (A) (A) (A) (A) (A)
                 (A) (A) (A) (A) (A) (A) (A) (A) (A) (A) (A) (A)
                 (A) (A) (A) (A) (A) (A) (A) (A) (A) (A) (A) (A)
                 (A) (A) (A) (A) (A) (A) (A) (A) (A) (A) (A) (A)
                 (A) (A) (A) (A) (A) (A) (A) (A) (A) (A) (A) (A)
                 (A) (A) (A) (A) (A) (A) (A) (A) (A) (A) (A) (A)
                 (A) (A) (A) (A) (A) (A) (A) (A) (A) (A) (A) (A)
                 (A) (A) (A) (A) (A) (A) (A) (A) (A) (A) (A) (A)
                 (A) (A) (A) (A) (A) (A) (A) (A) (A) (A) (A) (A)
                 (A) (A) (A) (A) (A) (A) (A) (A) (A) (A) (A) (A)
                 (A) (A) (A) (A) (A) (A) (A) (A) (A) (A) (A) (A)
                 (A) (A) (A) (A) (A) (A) (A) (A) (A) (A) (A) (A)
                 (A) (A) (A) (A) (A) (A) (A) (A) (A) (A) (A) (A)
                 (A) (A) (A) (A) (A) (A) (A) (A) (A) (A) (A) (A)
                 (A) (A) (A) (A) (A) (A) (A) (A) (A) (A) (A) (A)
                 (A) (A) (A) (A) (A) (A) (A) (A) (A) (A) (A) (A)
                 (A) (A) (A) (A) (A) (A) (A) (A) (A) (A) (A) (A)
                 (A) (A) (A) (A) (A) (A) (A) (A) (A) (A) (A) (A)
                 (A) (A) (A) (A) (A) (A) (A) (A) (A) (A) (A) (A)
                 (A) (A) (A) (A) (A) (A) (A) (A) (A) (A) (A) (A)
                 (A) (A) (A) (A) (A) (A) (A) (A) (A) (A) (A) (A)
                 (A) (A) (A) (A) (A) (A) (A) (A) (A) (A) (A) (A)
                 (A) (A) (A) (A) (A) (A) (A) (A) (A) (A) (A) (A)
                 (A) (A) (A) (A) (A) (A) (A) (A) (A) (A) (A) (A)
                 (A) (A) (A) (A) (A) (A) (A) (A) (A) (A) (A)
 The electronic state of the initial guess is 1-A.
 Requested convergence on RMS density matrix=1.00D-08 within 128 cycles.
 Requested convergence on MAX density matrix=1.00D-06.
 Requested convergence on             energy=1.00D-06.
 No special actions if energy rises.
 Defaulting to unpruned grid for atomic number  76.
 Defaulting to unpruned grid for atomic number  76.
 Defaulting to unpruned grid for atomic number  76.
 Defaulting to unpruned grid for atomic number  76.
 Defaulting to unpruned grid for atomic number  76.
 Defaulting to unpruned grid for atomic number  76.
 Defaulting to unpruned grid for atomic number  76.
 Defaulting to unpruned grid for atomic number  76.
 Defaulting to unpruned grid for atomic number  76.
 Defaulting to unpruned grid for atomic number  76.
 Defaulting to unpruned grid for atomic number  76.
 Defaulting to unpruned grid for atomic number  76.
 EnCoef did   100 forward-backward iterations
 EnCoef did    11 forward-backward iterations
 EnCoef did     3 forward-backward iterations
 SCF Done:  E(RB+HF-LYP) =  -1804.63343271     A.U. after   19 cycles
             Convg  =    0.7102D-08             -V/T =  2.0356
             S**2   =   0.0000
 QCSCF skips out because SCF is already converged.

 **********************************************************************

            Population analysis using the SCF density.

 **********************************************************************

 Orbital symmetries:
       Occupied  (A) (A) (A) (A) (A) (A) (A) (A) (A) (A) (A) (A)
                 (A) (A) (A) (A) (A) (A) (A) (A) (A) (A) (A) (A)
                 (A) (A) (A) (A) (A) (A) (A) (A) (A) (A) (A) (A)
                 (A) (A) (A) (A) (A) (A) (A) (A) (A) (A) (A) (A)
                 (A) (A) (A) (A) (A) (A) (A) (A) (A) (A) (A) (A)
                 (A) (A) (A) (A) (A) (A) (A) (A) (A) (A) (A) (A)
                 (A) (A) (A) (A) (A) (A) (A) (A) (A) (A) (A) (A)
                 (A) (A) (A) (A) (A) (A) (A) (A) (A) (A) (A) (A)
                 (A) (A) (A) (A) (A) (A) (A) (A) (A) (A) (A) (A)
                 (A) (A) (A) (A) (A) (A) (A) (A) (A) (A) (A) (A)
                 (A) (A) (A) (A) (A) (A) (A) (A) (A) (A) (A) (A)
                 (A) (A) (A) (A) (A) (A) (A) (A) (A) (A) (A) (A)
                 (A) (A) (A) (A)
       Virtual   (A) (A) (A) (A) (A) (A) (A) (A) (A) (A) (A) (A)
                 (A) (A) (A) (A) (A) (A) (A) (A) (A) (A) (A) (A)
                 (A) (A) (A) (A) (A) (A) (A) (A) (A) (A) (A) (A)
                 (A) (A) (A) (A) (A) (A) (A) (A) (A) (A) (A) (A)
                 (A) (A) (A) (A) (A) (A) (A) (A) (A) (A) (A) (A)
                 (A) (A) (A) (A) (A) (A) (A) (A) (A) (A) (A) (A)
                 (A) (A) (A) (A) (A) (A) (A) (A) (A) (A) (A) (A)
                 (A) (A) (A) (A) (A) (A) (A) (A) (A) (A) (A) (A)
                 (A) (A) (A) (A) (A) (A) (A) (A) (A) (A) (A) (A)
                 (A) (A) (A) (A) (A) (A) (A) (A) (A) (A) (A) (A)
                 (A) (A) (A) (A) (A) (A) (A) (A) (A) (A) (A) (A)
                 (A) (A) (A) (A) (A) (A) (A) (A) (A) (A) (A) (A)
                 (A) (A) (A) (A) (A) (A) (A) (A) (A) (A) (A) (A)
                 (A) (A) (A) (A) (A) (A) (A) (A) (A) (A) (A) (A)
                 (A) (A) (A) (A) (A) (A) (A) (A) (A) (A) (A) (A)
                 (A) (A) (A) (A) (A) (A) (A) (A) (A) (A) (A) (A)
                 (A) (A) (A) (A) (A) (A) (A) (A) (A) (A) (A) (A)
                 (A) (A) (A) (A) (A) (A) (A) (A) (A) (A) (A) (A)
                 (A) (A) (A) (A) (A) (A) (A) (A) (A) (A) (A) (A)
                 (A) (A) (A) (A) (A) (A) (A) (A) (A) (A) (A) (A)
                 (A) (A) (A) (A) (A) (A) (A) (A) (A) (A) (A) (A)
                 (A) (A) (A) (A) (A) (A) (A) (A) (A) (A) (A) (A)
                 (A) (A) (A) (A) (A) (A) (A) (A) (A) (A) (A) (A)
                 (A) (A) (A) (A) (A) (A) (A) (A) (A) (A) (A) (A)
                 (A) (A) (A) (A) (A) (A) (A) (A) (A) (A) (A) (A)
                 (A) (A) (A) (A) (A) (A) (A) (A) (A) (A) (A) (A)
                 (A) (A) (A) (A) (A) (A) (A) (A) (A) (A) (A) (A)
                 (A) (A) (A) (A) (A) (A) (A) (A) (A) (A) (A) (A)
                 (A) (A) (A) (A) (A) (A) (A) (A) (A) (A) (A) (A)
                 (A) (A) (A) (A) (A) (A) (A) (A) (A) (A) (A)
 The electronic state is 1-A.
 Alpha  occ. eigenvalues --  -14.58868 -14.58713 -14.58680 -14.58670 -14.58627
 Alpha  occ. eigenvalues --  -14.58494 -10.45165 -10.44932 -10.44504 -10.44482
 Alpha  occ. eigenvalues --  -10.44436 -10.44349 -10.44148 -10.43458 -10.43350
 Alpha  occ. eigenvalues --  -10.43003 -10.42990 -10.42717 -10.42480 -10.42104
 Alpha  occ. eigenvalues --  -10.42081 -10.42076 -10.41978 -10.41857 -10.40731
 Alpha  occ. eigenvalues --  -10.40278 -10.40195 -10.40165 -10.40021 -10.39900
 Alpha  occ. eigenvalues --  -10.39867 -10.39840 -10.39828 -10.39796 -10.39733
 Alpha  occ. eigenvalues --  -10.39376 -10.38799 -10.38713 -10.38609 -10.38605
 Alpha  occ. eigenvalues --  -10.38521 -10.38320  -3.63663  -2.07151  -2.07091
 Alpha  occ. eigenvalues --   -2.05881  -1.21210  -1.20473  -1.20144  -1.18121
 Alpha  occ. eigenvalues --   -1.17540  -1.17255  -1.07601  -1.07399  -1.07103
 Alpha  occ. eigenvalues --   -1.03927  -1.03563  -1.03369  -1.03316  -1.02875
 Alpha  occ. eigenvalues --   -1.02810  -0.98464  -0.97999  -0.97756  -0.97688
 Alpha  occ. eigenvalues --   -0.97323  -0.97109  -0.89730  -0.89072  -0.88945
 Alpha  occ. eigenvalues --   -0.87739  -0.87633  -0.87554  -0.87333  -0.87086
 Alpha  occ. eigenvalues --   -0.86963  -0.83735  -0.83665  -0.83537  -0.79330
 Alpha  occ. eigenvalues --   -0.78936  -0.78743  -0.78627  -0.78057  -0.77688
 Alpha  occ. eigenvalues --   -0.74670  -0.74498  -0.74419  -0.72884  -0.72748
 Alpha  occ. eigenvalues --   -0.72567  -0.71707  -0.71381  -0.71327  -0.69808
 Alpha  occ. eigenvalues --   -0.69687  -0.69622  -0.67810  -0.67378  -0.67256
 Alpha  occ. eigenvalues --   -0.67044  -0.66865  -0.66733  -0.66547  -0.66361
 Alpha  occ. eigenvalues --   -0.65868  -0.65621  -0.65411  -0.65077  -0.64447
 Alpha  occ. eigenvalues --   -0.63927  -0.63729  -0.63535  -0.63444  -0.63289
 Alpha  occ. eigenvalues --   -0.62598  -0.61343  -0.61305  -0.59931  -0.59563
 Alpha  occ. eigenvalues --   -0.58849  -0.58422  -0.58230  -0.57985  -0.56891
 Alpha  occ. eigenvalues --   -0.56333  -0.56303  -0.55893  -0.55470  -0.55276
 Alpha  occ. eigenvalues --   -0.53309  -0.52858  -0.52789  -0.52224  -0.51957
 Alpha  occ. eigenvalues --   -0.51724  -0.51665  -0.51248  -0.51141  -0.46422
 Alpha  occ. eigenvalues --   -0.46129  -0.45885  -0.45468  -0.45301  -0.45144
 Alpha  occ. eigenvalues --   -0.39888  -0.39778  -0.39174
 Alpha virt. eigenvalues --   -0.28460  -0.27326  -0.26952  -0.26450  -0.25909
 Alpha virt. eigenvalues --   -0.25634  -0.23158  -0.21804  -0.21589  -0.19361
 Alpha virt. eigenvalues --   -0.19303  -0.19075  -0.17742  -0.15344  -0.15287
 Alpha virt. eigenvalues --   -0.15165  -0.15092  -0.14665  -0.14231  -0.13478
 Alpha virt. eigenvalues --   -0.13097  -0.09806  -0.09227  -0.09128  -0.08753
 Alpha virt. eigenvalues --   -0.08501  -0.08441  -0.07611  -0.07185  -0.06852
 Alpha virt. eigenvalues --   -0.04843  -0.04348  -0.04126  -0.04003  -0.03469
 Alpha virt. eigenvalues --   -0.03316  -0.03268  -0.02416  -0.02314  -0.02057
 Alpha virt. eigenvalues --   -0.01547  -0.01383  -0.01206  -0.01117  -0.00902
 Alpha virt. eigenvalues --   -0.00801  -0.00689  -0.00587  -0.00152   0.00271
 Alpha virt. eigenvalues --    0.00445   0.01423   0.01613   0.02149   0.02747
 Alpha virt. eigenvalues --    0.02816   0.03063   0.03634   0.04159   0.05002
 Alpha virt. eigenvalues --    0.05355   0.05754   0.05787   0.05972   0.06309
 Alpha virt. eigenvalues --    0.06786   0.07304   0.07344   0.07416   0.07743
 Alpha virt. eigenvalues --    0.08019   0.08127   0.08365   0.08571   0.09000
 Alpha virt. eigenvalues --    0.09083   0.10436   0.10729   0.10968   0.11423
 Alpha virt. eigenvalues --    0.11782   0.11913   0.12038   0.12168   0.12550
 Alpha virt. eigenvalues --    0.12577   0.12788   0.13026   0.13236   0.13688
 Alpha virt. eigenvalues --    0.13812   0.14011   0.14043   0.14333   0.14603
 Alpha virt. eigenvalues --    0.14854   0.15168   0.15506   0.15541   0.16003
 Alpha virt. eigenvalues --    0.16094   0.16559   0.16637   0.17081   0.17140
 Alpha virt. eigenvalues --    0.17444   0.17540   0.18172   0.18585   0.18840
 Alpha virt. eigenvalues --    0.19137   0.19231   0.19688   0.19886   0.20125
 Alpha virt. eigenvalues --    0.20231   0.20721   0.20941   0.21167   0.21420
 Alpha virt. eigenvalues --    0.21628   0.21934   0.22482   0.22704   0.23067
 Alpha virt. eigenvalues --    0.23255   0.23421   0.23625   0.23765   0.23892
 Alpha virt. eigenvalues --    0.24235   0.24400   0.25017   0.25452   0.25823
 Alpha virt. eigenvalues --    0.26198   0.26459   0.26666   0.27126   0.27294
 Alpha virt. eigenvalues --    0.27577   0.27809   0.28080   0.28262   0.28480
 Alpha virt. eigenvalues --    0.29459   0.29567   0.29805   0.30095   0.30412
 Alpha virt. eigenvalues --    0.30861   0.31196   0.31883   0.32252   0.33365
 Alpha virt. eigenvalues --    0.33770   0.34224   0.34586   0.34919   0.35036
 Alpha virt. eigenvalues --    0.35401   0.35772   0.36343   0.36723   0.37065
 Alpha virt. eigenvalues --    0.37837   0.38209   0.38975   0.39077   0.39884
 Alpha virt. eigenvalues --    0.40077   0.40201   0.40791   0.41133   0.41428
 Alpha virt. eigenvalues --    0.41810   0.42213   0.42580   0.42909   0.43306
 Alpha virt. eigenvalues --    0.43590   0.44444   0.44715   0.45113   0.45879
 Alpha virt. eigenvalues --    0.46131   0.47013   0.47176   0.47882   0.48231
 Alpha virt. eigenvalues --    0.48919   0.48968   0.49112   0.50449   0.50726
 Alpha virt. eigenvalues --    0.51635   0.52019   0.52293   0.53015   0.53261
 Alpha virt. eigenvalues --    0.53377   0.53717   0.54236   0.55259   0.55745
 Alpha virt. eigenvalues --    0.56420   0.57920   0.58386   0.59107   0.59704
 Alpha virt. eigenvalues --    0.60253   0.60397   0.60496   0.61090   0.61375
 Alpha virt. eigenvalues --    0.61875   0.62321   0.63253   0.63787   0.64143
 Alpha virt. eigenvalues --    0.64841   0.65470   0.66418   0.67116   0.67813
 Alpha virt. eigenvalues --    0.68291   0.69090   0.73310   0.73406   0.74861
 Alpha virt. eigenvalues --    0.76355   0.76943   0.78447   0.78888   0.79245
 Alpha virt. eigenvalues --    0.79543   0.81453   0.82040   0.82060   0.82882
 Alpha virt. eigenvalues --    0.82966   0.83372   0.83999   0.84920   0.85107
 Alpha virt. eigenvalues --    0.86439   0.87720   0.88680   0.89216   0.89725
 Alpha virt. eigenvalues --    0.90626   0.92173   0.92451   0.93122   0.93677
 Alpha virt. eigenvalues --    0.93919   0.94460   0.94994   0.95145   0.96094
 Alpha virt. eigenvalues --    0.96896   0.98594   0.99206   0.99510   1.00435
 Alpha virt. eigenvalues --    1.02600   1.02998   1.05687   1.06558   1.07030
 Alpha virt. eigenvalues --    1.08846   1.09007   1.09487   1.10366   1.11158
 Alpha virt. eigenvalues --    1.12578   1.13007   1.14235   1.16483   1.17006
 Alpha virt. eigenvalues --    1.18040   1.19102   1.19238   1.19686   1.21448
 Alpha virt. eigenvalues --    1.22031   1.23789   1.26988   1.28007   1.29222
 Alpha virt. eigenvalues --    1.29980   1.30212   1.30777   1.33713   1.35468
 Alpha virt. eigenvalues --    1.35862   1.37423   1.38144   1.39133   1.40298
 Alpha virt. eigenvalues --    1.41404   1.42153   1.44482   1.46161   1.48853
 Alpha virt. eigenvalues --    1.49222   1.50997   1.58417   1.61578   1.63094
 Alpha virt. eigenvalues --    1.65443   3.14701  12.90096  22.43061  22.43572
 Alpha virt. eigenvalues --   22.46908  22.52359  22.53721  22.54059  22.54481
 Alpha virt. eigenvalues --   22.54849  22.56586  22.60611  22.62568  22.63147
 Alpha virt. eigenvalues --   22.63282  22.63951  22.64703  22.66954  22.67790
 Alpha virt. eigenvalues --   22.69220  22.70771  22.71486  22.71541  22.75788
 Alpha virt. eigenvalues --   22.76666  22.78769  22.80629  22.81052  22.81775
 Alpha virt. eigenvalues --   22.81902  22.82134  22.83264  22.85003  22.85555
 Alpha virt. eigenvalues --   22.85813  22.86809  22.87728  22.88910  31.66844
 Alpha virt. eigenvalues --   31.67434  31.68195  31.70314  31.70488  31.75515
 Alpha virt. eigenvalues --   48.84401  48.87177  48.89739 200.44749
          Condensed to atoms (all electrons):
 Mulliken atomic charges:
              1
     1  Os   1.139762
     2  N   -0.351685
     3  C   -0.195333
     4  C   -0.294969
     5  C   -0.378482
     6  C    0.482812
     7  C   -0.027424
     8  C   -0.442689
     9  C   -0.420187
    10  C    0.457602
    11  C   -0.034721
    12  C   -0.371475
    13  C   -0.281558
    14  C   -0.172254
    15  N   -0.339608
    16  N   -0.299709
    17  C   -0.234770
    18  C   -0.294408
    19  C   -0.380812
    20  C    0.475446
    21  C   -0.026725
    22  C   -0.433574
    23  C   -0.429549
    24  C    0.474726
    25  C   -0.005785
    26  C   -0.387020
    27  C   -0.300670
    28  C   -0.204278
    29  N   -0.313076
    30  N   -0.320302
    31  C   -0.215252
    32  C   -0.293180
    33  C   -0.391335
    34  C    0.459780
    35  C   -0.011703
    36  C   -0.433268
    37  C   -0.384817
    38  C    0.484419
    39  C    0.024369
    40  C   -0.399066
    41  C   -0.298693
    42  C   -0.187957
    43  N   -0.345651
    44  H    0.325648
    45  H    0.322323
    46  H    0.337154
    47  H    0.334693
    48  H    0.328979
    49  H    0.340016
    50  H    0.313877
    51  H    0.332299
    52  H    0.320010
    53  H    0.328251
    54  H    0.340313
    55  H    0.326172
    56  H    0.327817
    57  H    0.342454
    58  H    0.328722
    59  H    0.326994
    60  H    0.322323
    61  H    0.328185
    62  H    0.344175
    63  H    0.326417
    64  H    0.310988
    65  H    0.336000
    66  H    0.319630
    67  H    0.339632
 Sum of Mulliken charges=   2.00000
 Atomic charges with hydrogens summed into heavy atoms:
              1
     1  Os   1.139762
     2  N   -0.351685
     3  C    0.130314
     4  C    0.027353
     5  C   -0.041329
     6  C    0.482812
     7  C   -0.027424
     8  C   -0.107996
     9  C   -0.091208
    10  C    0.457602
    11  C   -0.034721
    12  C   -0.031460
    13  C    0.032319
    14  C    0.160045
    15  N   -0.339608
    16  N   -0.299709
    17  C    0.085240
    18  C    0.033843
    19  C   -0.040499
    20  C    0.475446
    21  C   -0.026725
    22  C   -0.107403
    23  C   -0.101731
    24  C    0.474726
    25  C   -0.005785
    26  C   -0.044566
    27  C    0.028052
    28  C    0.122716
    29  N   -0.313076
    30  N   -0.320302
    31  C    0.107071
    32  C    0.035005
    33  C   -0.047160
    34  C    0.459780
    35  C   -0.011703
    36  C   -0.106851
    37  C   -0.073829
    38  C    0.484419
    39  C    0.024369
    40  C   -0.063066
    41  C    0.020937
    42  C    0.151674
    43  N   -0.345651
    44  H    0.000000
    45  H    0.000000
    46  H    0.000000
    47  H    0.000000
    48  H    0.000000
    49  H    0.000000
    50  H    0.000000
    51  H    0.000000
    52  H    0.000000
    53  H    0.000000
    54  H    0.000000
    55  H    0.000000
    56  H    0.000000
    57  H    0.000000
    58  H    0.000000
    59  H    0.000000
    60  H    0.000000
    61  H    0.000000
    62  H    0.000000
    63  H    0.000000
    64  H    0.000000
    65  H    0.000000
    66  H    0.000000
    67  H    0.000000
 Sum of Mulliken charges=   2.00000
 Electronic spatial extent (au):  <R**2>= 17077.0194
 Charge=     2.0000 electrons
 Dipole moment (field-independent basis, Debye):
    X=    -0.0864    Y=     0.5947    Z=     0.1291  Tot=     0.6147
 Quadrupole moment (field-independent basis, Debye-Ang):
   XX=  -142.8011   YY=  -152.7723   ZZ=  -183.8950
   XY=    -0.0092   XZ=    -1.8257   YZ=    -1.9535
 Traceless Quadrupole moment (field-independent basis, Debye-Ang):
   XX=    17.0217   YY=     7.0505   ZZ=   -24.0722
   XY=    -0.0092   XZ=    -1.8257   YZ=    -1.9535
 Octapole moment (field-independent basis, Debye-Ang**2):
  XXX=    79.4545  YYY=   147.6910  ZZZ=    -6.4380  XYY=   -84.5151
  XXY=  -156.4558  XXZ=   -12.3632  XZZ=    15.1249  YZZ=     9.2812
  YYZ=     7.2915  XYZ=    10.2515
 Hexadecapole moment (field-independent basis, Debye-Ang**3):
 XXXX= -7277.9283 YYYY= -6723.5248 ZZZZ= -3970.2980 XXXY=    17.2694
 XXXZ=   389.8583 YYYX=    64.7714 YYYZ=  -313.1135 ZZZX=   -28.5241
 ZZZY=    55.0443 XXYY= -2471.8877 XXZZ= -1763.1795 YYZZ= -1683.3672
 XXYZ=   201.1469 YYXZ=  -413.9004 ZZXY=   -57.9477
 N-N= 5.452172880134D+03 E-N=-1.501177655170D+04  KE= 1.742561259325D+03
   1 Symmetry operations used in ECPInt.
 ECPInt:  NShTT=   49455 NPrTT=  249830 LenC2=   41676 LenP2D=  122254.
 LDataN:  DoStor=F MaxTD1= 8 Len=  415
 LDataN:  DoStor=T MaxTD1= 8 Len=  415
 Calling FoFCou, ICntrl=  2127 FMM=T ISym2X=0 I1Cent= 0 ISCF1= 0.
 Defaulting to unpruned grid for atomic number  76.
 Defaulting to unpruned grid for atomic number  76.
 Defaulting to unpruned grid for atomic number  76.
 Defaulting to unpruned grid for atomic number  76.
 Defaulting to unpruned grid for atomic number  76.
 Defaulting to unpruned grid for atomic number  76.
 Defaulting to unpruned grid for atomic number  76.
 Defaulting to unpruned grid for atomic number  76.
 Defaulting to unpruned grid for atomic number  76.
[...]
   55          1             0       -5.781625   -2.525733    0.992824
   56          1             0       -6.212635   -1.106461   -0.988918
   57          1             0       -5.322486    0.542037   -2.757811
   58          1             0       -3.358056    1.827984   -3.651639
   59          1             0       -1.136379    1.617426   -2.542301
   60          1             0        1.730655    0.947983    2.541338
   61          1             0        3.812631    0.151878    3.655696
   62          1             0        5.006134   -1.871241    2.764264
   63          1             0        5.077296   -3.743624    0.995680
   64          1             0        4.065676   -4.825724   -0.987505
   65          1             0        2.195298   -4.877578   -2.759178
   66          1             0        0.100733   -3.818279   -3.655081
   67          1             0       -0.829813   -1.790460   -2.544264
 ---------------------------------------------------------------------
 Rotational constants (GHZ):      0.0945859      0.0945510      0.0690301

 **********************************************************************

            Population analysis using the SCF density.

 **********************************************************************

 Orbital symmetries:
       Occupied  (A) (A) (A) (A) (A) (A) (A) (A) (A) (A) (A) (A)
                 (A) (A) (A) (A) (A) (A) (A) (A) (A) (A) (A) (A)
                 (A) (A) (A) (A) (A) (A) (A) (A) (A) (A) (A) (A)
                 (A) (A) (A) (A) (A) (A) (A) (A) (A) (A) (A) (A)
                 (A) (A) (A) (A) (A) (A) (A) (A) (A) (A) (A) (A)
                 (A) (A) (A) (A) (A) (A) (A) (A) (A) (A) (A) (A)
                 (A) (A) (A) (A) (A) (A) (A) (A) (A) (A) (A) (A)
                 (A) (A) (A) (A) (A) (A) (A) (A) (A) (A) (A) (A)
                 (A) (A) (A) (A) (A) (A) (A) (A) (A) (A) (A) (A)
                 (A) (A) (A) (A) (A) (A) (A) (A) (A) (A) (A) (A)
                 (A) (A) (A) (A) (A) (A) (A) (A) (A) (A) (A) (A)
                 (A) (A) (A) (A) (A) (A) (A) (A) (A) (A) (A) (A)
                 (A) (A) (A) (A)
       Virtual   (A) (A) (A) (A) (A) (A) (A) (A) (A) (A) (A) (A)
                 (A) (A) (A) (A) (A) (A) (A) (A) (A) (A) (A) (A)
                 (A) (A) (A) (A) (A) (A) (A) (A) (A) (A) (A) (A)
                 (A) (A) (A) (A) (A) (A) (A) (A) (A) (A) (A) (A)
                 (A) (A) (A) (A) (A) (A) (A) (A) (A) (A) (A) (A)
                 (A) (A) (A) (A) (A) (A) (A) (A) (A) (A) (A) (A)
                 (A) (A) (A) (A) (A) (A) (A) (A) (A) (A) (A) (A)
                 (A) (A) (A) (A) (A) (A) (A) (A) (A) (A) (A) (A)
                 (A) (A) (A) (A) (A) (A) (A) (A) (A) (A) (A) (A)
                 (A) (A) (A) (A) (A) (A) (A) (A) (A) (A) (A) (A)
                 (A) (A) (A) (A) (A) (A) (A) (A) (A) (A) (A) (A)
                 (A) (A) (A) (A) (A) (A) (A) (A) (A) (A) (A) (A)
                 (A) (A) (A) (A) (A) (A) (A) (A) (A) (A) (A) (A)
                 (A) (A) (A) (A) (A) (A) (A) (A) (A) (A) (A) (A)
                 (A) (A) (A) (A) (A) (A) (A) (A) (A) (A) (A) (A)
                 (A) (A) (A) (A) (A) (A) (A) (A) (A) (A) (A) (A)
                 (A) (A) (A) (A) (A) (A) (A) (A) (A) (A) (A) (A)
                 (A) (A) (A) (A) (A) (A) (A) (A) (A) (A) (A) (A)
                 (A) (A) (A) (A) (A) (A) (A) (A) (A) (A) (A) (A)
                 (A) (A) (A) (A) (A) (A) (A) (A) (A) (A) (A) (A)
                 (A) (A) (A) (A) (A) (A) (A) (A) (A) (A) (A) (A)
                 (A) (A) (A) (A) (A) (A) (A) (A) (A) (A) (A) (A)
                 (A) (A) (A) (A) (A) (A) (A) (A) (A) (A) (A) (A)
                 (A) (A) (A) (A) (A) (A) (A) (A) (A) (A) (A) (A)
                 (A) (A) (A) (A) (A) (A) (A) (A) (A) (A) (A) (A)
                 (A) (A) (A) (A) (A) (A) (A) (A) (A) (A) (A) (A)
                 (A) (A) (A) (A) (A) (A) (A) (A) (A) (A) (A) (A)
                 (A) (A) (A) (A) (A) (A) (A) (A) (A) (A) (A) (A)
                 (A) (A) (A) (A) (A) (A) (A) (A) (A) (A) (A) (A)
                 (A) (A) (A) (A) (A) (A) (A) (A) (A) (A) (A)
 The electronic state is 1-A.
 Alpha  occ. eigenvalues --  -14.58762 -14.58761 -14.58760 -14.58759 -14.58759
 Alpha  occ. eigenvalues --  -14.58759 -10.45044 -10.45043 -10.45042 -10.45002
 Alpha  occ. eigenvalues --  -10.45001 -10.45000 -10.44425 -10.44425 -10.44423
 Alpha  occ. eigenvalues --  -10.44422 -10.44422 -10.44420 -10.42530 -10.42528
 Alpha  occ. eigenvalues --  -10.42528 -10.42528 -10.42526 -10.42526 -10.41509
 Alpha  occ. eigenvalues --  -10.41508 -10.41508 -10.41507 -10.41506 -10.41505
 Alpha  occ. eigenvalues --  -10.40989 -10.40988 -10.40988 -10.40987 -10.40986
 Alpha  occ. eigenvalues --  -10.40986 -10.40299 -10.40298 -10.40297 -10.40237
 Alpha  occ. eigenvalues --  -10.40235 -10.40234  -3.63521  -2.06846  -2.06844
 Alpha  occ. eigenvalues --   -2.05636  -1.19784  -1.19078  -1.19077  -1.16635
 Alpha  occ. eigenvalues --   -1.16634  -1.16587  -1.06452  -1.06248  -1.06246
 Alpha  occ. eigenvalues --   -1.02208  -1.02207  -1.02159  -1.01935  -1.01917
 Alpha  occ. eigenvalues --   -1.01916  -0.96408  -0.96407  -0.96370  -0.95986
 Alpha  occ. eigenvalues --   -0.95903  -0.95902  -0.87523  -0.87335  -0.87333
 Alpha  occ. eigenvalues --   -0.86102  -0.86064  -0.86063  -0.85399  -0.85379
 Alpha  occ. eigenvalues --   -0.85378  -0.82070  -0.82069  -0.81937  -0.76797
 Alpha  occ. eigenvalues --   -0.76796  -0.76577  -0.76547  -0.75266  -0.75264
 Alpha  occ. eigenvalues --   -0.72910  -0.72908  -0.72885  -0.70125  -0.70083
 Alpha  occ. eigenvalues --   -0.70082  -0.69862  -0.69491  -0.69490  -0.68379
 Alpha  occ. eigenvalues --   -0.68335  -0.68335  -0.66129  -0.66080  -0.66077
 Alpha  occ. eigenvalues --   -0.64777  -0.64775  -0.64693  -0.64652  -0.64508
 Alpha  occ. eigenvalues --   -0.64507  -0.63554  -0.63553  -0.63542  -0.62293
 Alpha  occ. eigenvalues --   -0.62291  -0.62018  -0.61786  -0.61780  -0.61779
 Alpha  occ. eigenvalues --   -0.61559  -0.60436  -0.60435  -0.58476  -0.58476
 Alpha  occ. eigenvalues --   -0.57766  -0.57612  -0.56972  -0.56971  -0.55755
 Alpha  occ. eigenvalues --   -0.55629  -0.55627  -0.55292  -0.55290  -0.54819
 Alpha  occ. eigenvalues --   -0.52785  -0.52783  -0.52141  -0.51848  -0.51444
 Alpha  occ. eigenvalues --   -0.51444  -0.51222  -0.50874  -0.50872  -0.46071
 Alpha  occ. eigenvalues --   -0.45825  -0.45825  -0.44562  -0.44559  -0.44314
 Alpha  occ. eigenvalues --   -0.39617  -0.39616  -0.39029
 Alpha virt. eigenvalues --   -0.27929  -0.27043  -0.27040  -0.26852  -0.26645
 Alpha virt. eigenvalues --   -0.26644  -0.22955  -0.21680  -0.21680  -0.19604
 Alpha virt. eigenvalues --   -0.19602  -0.19593  -0.17602  -0.15672  -0.15667
 Alpha virt. eigenvalues --   -0.15455  -0.15257  -0.14900  -0.14899  -0.14084
 Alpha virt. eigenvalues --   -0.14079  -0.09988  -0.09988  -0.09625  -0.09205
 Alpha virt. eigenvalues --   -0.09014  -0.09013  -0.07391  -0.07384  -0.07251
 Alpha virt. eigenvalues --   -0.06016  -0.05325  -0.05322  -0.04630  -0.04147
 Alpha virt. eigenvalues --   -0.04146  -0.03719  -0.03610  -0.03428  -0.03427
 Alpha virt. eigenvalues --   -0.03161  -0.03159  -0.02058  -0.02057  -0.01900
 Alpha virt. eigenvalues --   -0.01889  -0.01718  -0.01717  -0.00744  -0.00738
 Alpha virt. eigenvalues --   -0.00690  -0.00048   0.00402   0.00405   0.00502
 Alpha virt. eigenvalues --    0.00504   0.01232   0.02407   0.02725   0.02966
 Alpha virt. eigenvalues --    0.02968   0.03744   0.03749   0.04029   0.04762
 Alpha virt. eigenvalues --    0.04763   0.04934   0.05547   0.05551   0.06013
 Alpha virt. eigenvalues --    0.06016   0.06062   0.06435   0.06595   0.06599
 Alpha virt. eigenvalues --    0.08037   0.08985   0.09144   0.09145   0.09976
 Alpha virt. eigenvalues --    0.10665   0.10882   0.10885   0.11339   0.11340
 Alpha virt. eigenvalues --    0.12006   0.12008   0.12498   0.12565   0.12709
 Alpha virt. eigenvalues --    0.12710   0.12861   0.12891   0.12893   0.13077
 Alpha virt. eigenvalues --    0.14214   0.14623   0.14624   0.15080   0.15495
 Alpha virt. eigenvalues --    0.15591   0.15598   0.15884   0.15884   0.16947
 Alpha virt. eigenvalues --    0.17151   0.17152   0.18028   0.18049   0.18490
 Alpha virt. eigenvalues --    0.18494   0.18564   0.18565   0.19147   0.19601
 Alpha virt. eigenvalues --    0.19601   0.20294   0.20439   0.20441   0.20740
 Alpha virt. eigenvalues --    0.20741   0.21066   0.21493   0.21542   0.22123
 Alpha virt. eigenvalues --    0.22124   0.22995   0.23050   0.23051   0.23145
 Alpha virt. eigenvalues --    0.23146   0.23332   0.23611   0.23614   0.24549
 Alpha virt. eigenvalues --    0.24554   0.24673   0.25747   0.25788   0.25795
 Alpha virt. eigenvalues --    0.26952   0.26955   0.27071   0.27221   0.28386
 Alpha virt. eigenvalues --    0.28610   0.28617   0.28773   0.28774   0.29368
 Alpha virt. eigenvalues --    0.29589   0.29772   0.29773   0.31488   0.31547
 Alpha virt. eigenvalues --    0.31554   0.32381   0.32581   0.32582   0.34071
 Alpha virt. eigenvalues --    0.34078   0.34650   0.35384   0.35390   0.36298
 Alpha virt. eigenvalues --    0.37468   0.37644   0.37647   0.37819   0.37822
 Alpha virt. eigenvalues --    0.38376   0.39585   0.39595   0.40150   0.40762
 Alpha virt. eigenvalues --    0.40814   0.40821   0.42139   0.42141   0.42572
 Alpha virt. eigenvalues --    0.42582   0.42783   0.44186   0.44516   0.44520
 Alpha virt. eigenvalues --    0.44973   0.46237   0.46247   0.47003   0.47009
 Alpha virt. eigenvalues --    0.47766   0.47769   0.47836   0.48607   0.49075
 Alpha virt. eigenvalues --    0.49849   0.50096   0.50098   0.51029   0.51041
 Alpha virt. eigenvalues --    0.51711   0.52512   0.52520   0.54481   0.54486
 Alpha virt. eigenvalues --    0.56313   0.57767   0.57770   0.57827   0.58426
 Alpha virt. eigenvalues --    0.58428   0.59124   0.59774   0.59783   0.60894
 Alpha virt. eigenvalues --    0.61164   0.61172   0.62325   0.62332   0.62658
 Alpha virt. eigenvalues --    0.63895   0.63900   0.65856   0.65864   0.66495
 Alpha virt. eigenvalues --    0.66500   0.68588   0.73558   0.73575   0.74818
 Alpha virt. eigenvalues --    0.76400   0.76401   0.77786   0.77873   0.78840
 Alpha virt. eigenvalues --    0.78844   0.80873   0.81357   0.81367   0.81587
 Alpha virt. eigenvalues --    0.81599   0.82930   0.83323   0.83435   0.83438
 Alpha virt. eigenvalues --    0.84486   0.84486   0.85417   0.86771   0.87073
 Alpha virt. eigenvalues --    0.87074   0.87849   0.87854   0.88595   0.88926
 Alpha virt. eigenvalues --    0.88943   0.90657   0.91756   0.93856   0.93862
 Alpha virt. eigenvalues --    0.96416   0.96422   0.97613   0.97878   1.00306
 Alpha virt. eigenvalues --    1.00312   1.01416   1.02467   1.02890   1.02899
 Alpha virt. eigenvalues --    1.03260   1.03268   1.04996   1.06233   1.06237
 Alpha virt. eigenvalues --    1.06635   1.08661   1.08668   1.08956   1.09651
 Alpha virt. eigenvalues --    1.09659   1.12762   1.12776   1.13426   1.15475
 Alpha virt. eigenvalues --    1.15482   1.17660   1.20089   1.20101   1.21786
 Alpha virt. eigenvalues --    1.22485   1.22510   1.25285   1.28310   1.29390
 Alpha virt. eigenvalues --    1.29395   1.30439   1.31917   1.31922   1.35056
 Alpha virt. eigenvalues --    1.35828   1.35850   1.44235   1.44592   1.44615
 Alpha virt. eigenvalues --    1.49614   1.49643   1.56764   1.61761   1.61771
 Alpha virt. eigenvalues --    1.62244   3.13520  12.90562  22.41118  22.41120
 Alpha virt. eigenvalues --   22.45362  22.50146  22.50567  22.50568  22.51304
 Alpha virt. eigenvalues --   22.51307  22.53280  22.60762  22.61319  22.61321
 Alpha virt. eigenvalues --   22.61346  22.61353  22.61567  22.65220  22.65227
 Alpha virt. eigenvalues --   22.66441  22.68605  22.69464  22.69466  22.75829
 Alpha virt. eigenvalues --   22.75835  22.76913  22.78259  22.78260  22.78385
 Alpha virt. eigenvalues --   22.79544  22.79548  22.80382  22.81299  22.81302
 Alpha virt. eigenvalues --   22.81577  22.85158  22.85161  22.87160  31.66425
 Alpha virt. eigenvalues --   31.66425  31.67259  31.69463  31.69469  31.73473
 Alpha virt. eigenvalues --   48.81972  48.87125  48.87141 200.46113
          Condensed to atoms (all electrons):
 Mulliken atomic charges:
              1
     1  Os   1.201406
     2  N   -0.333240
     3  C   -0.143324
     4  C   -0.219925
     5  C   -0.337424
     6  C    0.514373
     7  C   -0.004625
     8  C   -0.417423
     9  C   -0.417380
    10  C    0.514230
    11  C   -0.004292
    12  C   -0.337422
    13  C   -0.219911
    14  C   -0.143113
    15  N   -0.333605
    16  N   -0.333457
    17  C   -0.143167
    18  C   -0.219947
    19  C   -0.337417
    20  C    0.514331
    21  C   -0.004644
    22  C   -0.417368
    23  C   -0.417390
    24  C    0.514297
    25  C   -0.004291
    26  C   -0.337417
    27  C   -0.219932
    28  C   -0.143236
    29  N   -0.333447
    30  N   -0.333431
    31  C   -0.143335
    32  C   -0.219888
    33  C   -0.337419
    34  C    0.514345
    35  C   -0.004491
    36  C   -0.417404
    37  C   -0.417395
    38  C    0.514212
    39  C   -0.004191
    40  C   -0.337398
    41  C   -0.219878
    42  C   -0.143245
    43  N   -0.333646
    44  H    0.263758
    45  H    0.262491
    46  H    0.280096
    47  H    0.268286
    48  H    0.268287
    49  H    0.280095
    50  H    0.262490
    51  H    0.263764
    52  H    0.263763
    53  H    0.262495
    54  H    0.280096
    55  H    0.268272
    56  H    0.268284
    57  H    0.280103
    58  H    0.262497
    59  H    0.263770
    60  H    0.263799
    61  H    0.262493
    62  H    0.280112
    63  H    0.268285
    64  H    0.268288
    65  H    0.280109
    66  H    0.262501
    67  H    0.263792
 Sum of Mulliken charges=   2.00000
 Atomic charges with hydrogens summed into heavy atoms:
              1
     1  Os   1.201406
     2  N   -0.333240
     3  C    0.120434
     4  C    0.042566
     5  C   -0.057328
     6  C    0.514373
     7  C   -0.004625
     8  C   -0.149137
     9  C   -0.149093
    10  C    0.514230
    11  C   -0.004292
    12  C   -0.057327
    13  C    0.042578
    14  C    0.120651
    15  N   -0.333605
    16  N   -0.333457
    17  C    0.120596
    18  C    0.042549
    19  C   -0.057321
    20  C    0.514331
    21  C   -0.004644
    22  C   -0.149095
    23  C   -0.149105
    24  C    0.514297
    25  C   -0.004291
    26  C   -0.057313
    27  C    0.042565
    28  C    0.120534
    29  N   -0.333447
    30  N   -0.333431
    31  C    0.120464
    32  C    0.042605
    33  C   -0.057307
    34  C    0.514345
    35  C   -0.004491
    36  C   -0.149120
    37  C   -0.149107
    38  C    0.514212
    39  C   -0.004191
    40  C   -0.057290
    41  C    0.042622
    42  C    0.120547
    43  N   -0.333646
    44  H    0.000000
    45  H    0.000000
    46  H    0.000000
    47  H    0.000000
    48  H    0.000000
    49  H    0.000000
    50  H    0.000000
    51  H    0.000000
    52  H    0.000000
    53  H    0.000000
    54  H    0.000000
    55  H    0.000000
    56  H    0.000000
    57  H    0.000000
    58  H    0.000000
    59  H    0.000000
    60  H    0.000000
    61  H    0.000000
    62  H    0.000000
    63  H    0.000000
    64  H    0.000000
    65  H    0.000000
    66  H    0.000000
    67  H    0.000000
 Sum of Mulliken charges=   2.00000
 Electronic spatial extent (au):  <R**2>= 17656.4485
 Charge=     2.0000 electrons
 Dipole moment (field-independent basis, Debye):
    X=     0.0017    Y=     0.0013    Z=     0.0076  Tot=     0.0079
 Quadrupole moment (field-independent basis, Debye-Ang):
   XX=  -144.9646   YY=  -145.0392   ZZ=  -184.6997
   XY=    -0.0127   XZ=    -0.0070   YZ=     0.0098
 Traceless Quadrupole moment (field-independent basis, Debye-Ang):
   XX=    13.2699   YY=    13.1953   ZZ=   -26.4652
   XY=    -0.0127   XZ=    -0.0070   YZ=     0.0098
 Octapole moment (field-independent basis, Debye-Ang**2):
  XXX=  -120.3948  YYY=   145.7408  ZZZ=    -0.1988  XYY=   120.3079
  XXY=  -145.6049  XXZ=    -0.0310  XZZ=     0.0942  YZZ=    -0.1643
  YYZ=     0.1737  XYZ=     0.0353
 Hexadecapole moment (field-independent basis, Debye-Ang**3):
 XXXX= -7360.4666 YYYY= -7357.7081 ZZZZ= -4102.8309 XXXY=     0.2037
 XXXZ=   430.4626 YYYX=     0.4077 YYYZ=   355.5384 ZZZX=     0.3430
 ZZZY=     0.2312 XXYY= -2451.7019 XXZZ= -1761.8062 YYZZ= -1761.6822
 XXYZ=  -355.3156 YYXZ=  -430.8345 ZZXY=    -0.5781
 N-N= 5.358291563961D+03 E-N=-1.482093735968D+04  KE= 1.735770899820D+03
 1\1\GINC-C6A-S3\FOpt\RB3LYP\SDD\C36H24N6Os1(2+)\ROOT\03-Nov-2015\0\\#N
  B3LYP/SDD Geom=PrintInputOrient Integral=(Grid=UltraFine) Opt SCF=XQC
 \\CLR\\2,1\Os,25.7797613336,11.2626133723,7.5651382315\N,26.7965386801
 ,12.547616796,6.2475668707\C,28.0070735054,13.1337189335,6.4145036987\
 C,28.5722035333,13.9931702641,5.4448187109\C,27.8793772655,14.26660848
 92,4.2634082054\C,26.6039898857,13.6713313704,4.0575752353\C,26.099484
 6806,12.8215861583,5.079073352\C,25.8005857802,13.8821398561,2.8744516
 489\C,24.5727331351,13.2758037357,2.73262595\C,24.0445094441,12.411397
 4324,3.7637867456\C,24.8218166262,12.1960369436,4.9339539355\C,22.7836
 326293,11.7584182226,3.6786688675\C,22.3686401189,10.9455562043,4.7357
 60371\C,23.19584514,10.7820835542,5.8703240151\N,24.4007301799,11.3922
 012084,5.9840112132\N,27.1866636505,11.3858282516,9.1225815486\C,28.24
 32456156,10.572244687,9.3646152604\C,29.1095230013,10.763469292,10.465
 1378172\C,28.8912316288,11.8200278084,11.3520291562\C,27.7888521417,12
 .6910635163,11.1299536778\C,26.960108048,12.4334018972,10.0044410914\C
 ,27.4695474039,13.8157550521,11.9801561171\C,26.3888876988,14.62512553
 31,11.7110646367\C,25.535274012,14.3748054744,10.5716297344\C,25.83468
 72904,13.2709748896,9.727856244\C,24.4043591547,15.1716600314,10.24090
 20975\C,23.6460720824,14.838559178,9.1164113206\C,24.0038891205,13.722
 2900282,8.3263368285\N,25.0726850216,12.9408558401,8.6158723685\N,26.5
 184426186,9.4739678275,6.743437368\C,27.4277797525,9.3199499929,5.7504
 165779\C,27.8287429384,8.0480302787,5.2815941944\C,27.2831661596,6.891
 5001898,5.843076234\C,26.3230808178,7.0168674332,6.8851132945\C,25.967
 3880398,8.328556221,7.3009182881\C,25.6957284696,5.8906802701,7.539208
 9284\C,24.7736963554,6.0767116157,8.5445450156\C,24.3993866989,7.40438
 21945,8.976666393\C,25.0058672009,8.521758048,8.3413660567\C,23.452789
 9908,7.6631948764,10.0064962579\C,23.1630481179,8.9871231049,10.343579
 429\C,23.8049723651,10.0476120567,9.6640901713\N,24.7084432498,9.83537
 45026,8.6765207704\H,28.5358933667,12.9110051142,7.333049993\H,29.5456
 345373,14.4314103535,5.6363570411\H,28.302780126,14.9235225168,3.50927
 82884\H,26.1862188643,14.5313368448,2.0933267292\H,23.9787473908,13.44
 06181326,1.8380042653\H,22.1575206287,11.8937582532,2.8016402399\H,21.
 4144761022,10.4308814514,4.7041757102\H,22.8844494214,10.1574017583,6.
 698390801\H,28.4034162487,9.7587300225,8.6679013431\H,29.938842162,10.
 0786155318,10.6047738482\H,29.550054396,11.9795613549,12.2005735072\H,
 28.1028658088,14.0129911956,12.8405859956\H,26.1602139219,15.468688530
 9,12.3563847187\H,24.13989177,16.0257500054,10.8574270172\H,22.7788802
 987,15.4250372803,8.832985476\H,23.4221630565,13.4514630398,7.45385327
 44\H,27.8455292497,10.2242504795,5.3253904271\H,28.561667971,7.9904717
 384,4.4842119452\H,27.5832155312,5.9080634188,5.4933278807\H,25.967489
 944,4.8878562593,7.2217325273\H,24.3104044577,5.2222497121,9.029931484
 1\H,22.9661387716,6.8389395489,10.5195934379\H,22.4482037916,9.2216738
 764,11.1248065204\H,23.5868215998,11.078670948,9.9136135993\\Version=A
 M64L-G03RevE.01\State=1-A\HF=-1805.0275049\RMSD=4.654e-09\RMSF=3.138e-
 05\Thermal=0.\Dipole=0.0027305,-0.0005419,-0.0013399\PG=C01 [X(C36H24N
 6Os1)]\\@


 THE BEST WAY TO CONVINCE A FOOL THAT HE IS WRONG 
 IS TO LET HIM HAVE HIS OWN WAY.

                                         JOSH BILLINGS

 File lengths (MBytes):  RWF=    203 Int=      0 D2E=      0 Chk=     26 Scr=      1
 Normal termination of Gaussian 03 at Tue Nov  3 04:32:43 2015.
